#   Source : patch atmosphere
#   Faces  : 7880
#   Area   : 3.500000e+001
#        Time	sum(rhoPhi)
1.666667e-002	6.879453e+002
2.500000e-002	3.118710e+002
3.333333e-002	4.519836e+002
3.888889e-002	5.158043e+002
4.444444e-002	5.560629e+002
5.000000e-002	5.749734e+002
5.625000e-002	5.823306e+002
6.250000e-002	5.868509e+002
6.875000e-002	5.933587e+002
7.500000e-002	6.019822e+002
8.125000e-002	6.106172e+002
8.750000e-002	6.188161e+002
9.375000e-002	6.269486e+002
1.000000e-001	6.356307e+002
1.071429e-001	6.433013e+002
1.142857e-001	6.501593e+002
1.214286e-001	6.524142e+002
1.285714e-001	6.526469e+002
1.357143e-001	6.509400e+002
1.428571e-001	6.471641e+002
1.500000e-001	6.452896e+002
1.571429e-001	6.424593e+002
1.642857e-001	6.431527e+002
1.714286e-001	6.428246e+002
1.785714e-001	6.439005e+002
1.857143e-001	6.443328e+002
1.928571e-001	6.448810e+002
2.000000e-001	6.468717e+002
2.071429e-001	6.489810e+002
2.142857e-001	6.503047e+002
2.214286e-001	6.506836e+002
2.285714e-001	6.514844e+002
2.357143e-001	6.506344e+002
2.428571e-001	6.520497e+002
2.500000e-001	6.539469e+002
2.571429e-001	6.557293e+002
2.642857e-001	6.566960e+002
2.714286e-001	6.575635e+002
2.785714e-001	6.574451e+002
2.839286e-001	6.585877e+002
2.892857e-001	6.565158e+002
2.946429e-001	6.577886e+002
2.973214e-001	6.573241e+002
3.000000e-001	6.521021e+002
3.031250e-001	6.544502e+002
3.067308e-001	6.614035e+002
3.106643e-001	6.667374e+002
3.150350e-001	6.710939e+002
3.194056e-001	6.744192e+002
3.237762e-001	6.764650e+002
3.275225e-001	6.779970e+002
3.312687e-001	6.781578e+002
3.350150e-001	6.798403e+002
3.387612e-001	6.819396e+002
3.425075e-001	6.841382e+002
3.462537e-001	6.856426e+002
3.481269e-001	6.846933e+002
3.500000e-001	6.793378e+002
3.521739e-001	6.806801e+002
3.546911e-001	6.838736e+002
3.575229e-001	6.879339e+002
3.605570e-001	6.917238e+002
3.638439e-001	6.944484e+002
3.674595e-001	6.984432e+002
3.707135e-001	7.017284e+002
3.739676e-001	7.034278e+002
3.768601e-001	7.058288e+002
3.791741e-001	7.060118e+002
3.812567e-001	7.050197e+002
3.833393e-001	7.055427e+002
3.854219e-001	7.082034e+002
3.875044e-001	7.108671e+002
3.895870e-001	7.125636e+002
3.916696e-001	7.130879e+002
3.937522e-001	7.132761e+002
3.958348e-001	7.127845e+002
3.979174e-001	7.121205e+002
4.000000e-001	7.115497e+002
4.023810e-001	7.121183e+002
4.050265e-001	7.134976e+002
4.075250e-001	7.142836e+002
4.101797e-001	7.134680e+002
4.130240e-001	7.141272e+002
4.158683e-001	7.138525e+002
4.189712e-001	7.113279e+002
4.217920e-001	7.086070e+002
4.243563e-001	7.047386e+002
4.269207e-001	7.020983e+002
4.294851e-001	7.015131e+002
4.320494e-001	7.010826e+002
4.346138e-001	7.009159e+002
4.371782e-001	7.010820e+002
4.397425e-001	7.001980e+002
4.423069e-001	6.998212e+002
4.448713e-001	6.996367e+002
4.474356e-001	6.990276e+002
4.500000e-001	6.991577e+002
4.525000e-001	6.987326e+002
4.547619e-001	6.972096e+002
4.569161e-001	6.959916e+002
4.589677e-001	6.948115e+002
4.610193e-001	6.934955e+002
4.630709e-001	6.927586e+002
4.651226e-001	6.923239e+002
4.671742e-001	6.917272e+002
4.692258e-001	6.906871e+002
4.712774e-001	6.897396e+002
4.734868e-001	6.892754e+002
4.756963e-001	6.890639e+002
4.781266e-001	6.889810e+002
4.805570e-001	6.895920e+002
4.829874e-001	6.891360e+002
4.854178e-001	6.896534e+002
4.875009e-001	6.893936e+002
4.895841e-001	6.879480e+002
4.916673e-001	6.876079e+002
4.937505e-001	6.873762e+002
4.958336e-001	6.871390e+002
4.979168e-001	6.863197e+002
5.000000e-001	6.847453e+002
5.023810e-001	6.832627e+002
5.050265e-001	6.830841e+002
5.078373e-001	6.834914e+002
5.108489e-001	6.835702e+002
5.141115e-001	6.836888e+002
5.171022e-001	6.835238e+002
5.200929e-001	6.822091e+002
5.230836e-001	6.814570e+002
5.257753e-001	6.805300e+002
5.284669e-001	6.788319e+002
5.311585e-001	6.780930e+002
5.338502e-001	6.780541e+002
5.361573e-001	6.775756e+002
5.384644e-001	6.770729e+002
5.407715e-001	6.787540e+002
5.430786e-001	6.803168e+002
5.453858e-001	6.815473e+002
5.476929e-001	6.816343e+002
5.500000e-001	6.811139e+002
5.525000e-001	6.803125e+002
5.551389e-001	6.794602e+002
5.579427e-001	6.780423e+002
5.607465e-001	6.770209e+002
5.637660e-001	6.760245e+002
5.667855e-001	6.755997e+002
5.698050e-001	6.744293e+002
5.728245e-001	6.739830e+002
5.758440e-001	6.736946e+002
5.778570e-001	6.727769e+002
5.795603e-001	6.687180e+002
5.812636e-001	6.673421e+002
5.831373e-001	6.677706e+002
5.852451e-001	6.683597e+002
5.873529e-001	6.686319e+002
5.894608e-001	6.677540e+002
5.915686e-001	6.668843e+002
5.936765e-001	6.661898e+002
5.957843e-001	6.657341e+002
5.978922e-001	6.655344e+002
6.000000e-001	6.654431e+002
6.023810e-001	6.657795e+002
6.050265e-001	6.669952e+002
6.080247e-001	6.679171e+002
6.112536e-001	6.684883e+002
6.147760e-001	6.684558e+002
6.182984e-001	6.682212e+002
6.218208e-001	6.679225e+002
6.253432e-001	6.677363e+002
6.288656e-001	6.676350e+002
6.323880e-001	6.674683e+002
6.353233e-001	6.668701e+002
6.382587e-001	6.652658e+002
6.411940e-001	6.654028e+002
6.441293e-001	6.653355e+002
6.470647e-001	6.650356e+002
6.500000e-001	6.646747e+002
6.531250e-001	6.646568e+002
6.564732e-001	6.653887e+002
6.601004e-001	6.661509e+002
6.637277e-001	6.671254e+002
6.670252e-001	6.671811e+002
6.706890e-001	6.665123e+002
6.739458e-001	6.666020e+002
6.772026e-001	6.652558e+002
6.804594e-001	6.649665e+002
6.837161e-001	6.649244e+002
6.869729e-001	6.648890e+002
6.902297e-001	6.650096e+002
6.934865e-001	6.652025e+002
6.967432e-001	6.655059e+002
7.000000e-001	6.656256e+002
7.033333e-001	6.659157e+002
7.066667e-001	6.661344e+002
7.100000e-001	6.661655e+002
7.133333e-001	6.661417e+002
7.170000e-001	6.667352e+002
7.206667e-001	6.674826e+002
7.243333e-001	6.675302e+002
7.280000e-001	6.674715e+002
7.311429e-001	6.667154e+002
7.342857e-001	6.653915e+002
7.369048e-001	6.645943e+002
7.395238e-001	6.630170e+002
7.416190e-001	6.625218e+002
7.437143e-001	6.606552e+002
7.458095e-001	6.609592e+002
7.479048e-001	6.614497e+002
7.500000e-001	6.621695e+002
7.522727e-001	6.632242e+002
7.547847e-001	6.648652e+002
7.574444e-001	6.660613e+002
7.602815e-001	6.667748e+002
7.633367e-001	6.672675e+002
7.666698e-001	6.677373e+002
7.700028e-001	6.677241e+002
7.733358e-001	6.673121e+002
7.766688e-001	6.671590e+002
7.800019e-001	6.674713e+002
7.833349e-001	6.677195e+002
7.866679e-001	6.680388e+002
7.900009e-001	6.683020e+002
7.933340e-001	6.689626e+002
7.966670e-001	6.690938e+002
7.983335e-001	6.677664e+002
8.000000e-001	6.614419e+002
8.019231e-001	6.622538e+002
8.042125e-001	6.647976e+002
8.067562e-001	6.668891e+002
8.096391e-001	6.685056e+002
8.127438e-001	6.701257e+002
8.161307e-001	6.716504e+002
8.198940e-001	6.737971e+002
8.236572e-001	6.755858e+002
8.269501e-001	6.762478e+002
8.298313e-001	6.754617e+002
8.327126e-001	6.753808e+002
8.355938e-001	6.766854e+002
8.384750e-001	6.775533e+002
8.413563e-001	6.783657e+002
8.442375e-001	6.788818e+002
8.471188e-001	6.794054e+002
8.500000e-001	6.798930e+002
8.531250e-001	6.808839e+002
8.564732e-001	6.824486e+002
8.601004e-001	6.836714e+002
8.640904e-001	6.847758e+002
8.676814e-001	6.852158e+002
8.712723e-001	6.839523e+002
8.748633e-001	6.836271e+002
8.784542e-001	6.834813e+002
8.820452e-001	6.835384e+002
8.856362e-001	6.841370e+002
8.892271e-001	6.851037e+002
8.928181e-001	6.869329e+002
8.964090e-001	6.891247e+002
9.000000e-001	6.919606e+002
9.038462e-001	6.967008e+002
9.080420e-001	7.033674e+002
9.118563e-001	7.089536e+002
9.160945e-001	7.152135e+002
9.203327e-001	7.233585e+002
9.245709e-001	7.310435e+002
9.288091e-001	7.376145e+002
9.330473e-001	7.451482e+002
9.372854e-001	7.522075e+002
9.415236e-001	7.586965e+002
9.457618e-001	7.612396e+002
9.500000e-001	7.634474e+002
9.541667e-001	7.655232e+002
9.583333e-001	7.657518e+002
9.625000e-001	7.637654e+002
9.666667e-001	7.600699e+002
9.708333e-001	7.559527e+002
9.750000e-001	7.512930e+002
9.791667e-001	7.480245e+002
9.833333e-001	7.437316e+002
9.875000e-001	7.390258e+002
9.916667e-001	7.342765e+002
9.944444e-001	7.307410e+002
9.972222e-001	7.240238e+002
1.000000e+000	7.224474e+002
1.003125e+000	7.230999e+002
1.006473e+000	7.255569e+002
1.010100e+000	7.279029e+002
1.014090e+000	7.298941e+002
1.018080e+000	7.309738e+002
1.022070e+000	7.294674e+002
1.026060e+000	7.261549e+002
1.030050e+000	7.232807e+002
1.034040e+000	7.206145e+002
1.038030e+000	7.174112e+002
1.042020e+000	7.146864e+002
1.046010e+000	7.122528e+002
1.048005e+000	7.098396e+002
1.050000e+000	7.026253e+002
1.052381e+000	7.020567e+002
1.055026e+000	7.035273e+002
1.058025e+000	7.035533e+002
1.061254e+000	7.039398e+002
1.064776e+000	7.037475e+002
1.068690e+000	7.032317e+002
1.072604e+000	7.027335e+002
1.076517e+000	7.024531e+002
1.080431e+000	7.021494e+002
1.084345e+000	7.018326e+002
1.088259e+000	7.009387e+002
1.092172e+000	7.007709e+002
1.096086e+000	7.004631e+002
1.100000e+000	7.015910e+002
1.104167e+000	7.036135e+002
1.108750e+000	7.057153e+002
1.113333e+000	7.063701e+002
1.117407e+000	7.053040e+002
1.121481e+000	7.037040e+002
1.125556e+000	7.028548e+002
1.129630e+000	7.013164e+002
1.133704e+000	7.002270e+002
1.137778e+000	6.992354e+002
1.141852e+000	6.985120e+002
1.145926e+000	6.977868e+002
1.150000e+000	6.976935e+002
1.154167e+000	6.977893e+002
1.158333e+000	6.992702e+002
1.162121e+000	7.004613e+002
1.165565e+000	7.007518e+002
1.169008e+000	7.010579e+002
1.172452e+000	7.028483e+002
1.175895e+000	7.039998e+002
1.179339e+000	7.054522e+002
1.182782e+000	7.066145e+002
1.186226e+000	7.081273e+002
1.189669e+000	7.095786e+002
1.193113e+000	7.124046e+002
1.196556e+000	7.155409e+002
1.200000e+000	7.190147e+002
1.203333e+000	7.221707e+002
1.206444e+000	7.240873e+002
1.209348e+000	7.244975e+002
1.212475e+000	7.258531e+002
1.215362e+000	7.272287e+002
1.218026e+000	7.281738e+002
1.220933e+000	7.304116e+002
1.223355e+000	7.329184e+002
1.225576e+000	7.328615e+002
1.227796e+000	7.340465e+002
1.230263e+000	7.359330e+002
1.232730e+000	7.372713e+002
1.235197e+000	7.367273e+002
1.237664e+000	7.354312e+002
1.240132e+000	7.334451e+002
1.242599e+000	7.310574e+002
1.245066e+000	7.282367e+002
1.247533e+000	7.257691e+002
1.250000e+000	7.235912e+002
1.252632e+000	7.224106e+002
1.255418e+000	7.219989e+002
1.258390e+000	7.216977e+002
1.261362e+000	7.208644e+002
1.264582e+000	7.200237e+002
1.268124e+000	7.203114e+002
1.271666e+000	7.208869e+002
1.275207e+000	7.208053e+002
1.278749e+000	7.214744e+002
1.281785e+000	7.209223e+002
1.284821e+000	7.204432e+002
1.287857e+000	7.211722e+002
1.290893e+000	7.220265e+002
1.293928e+000	7.230723e+002
1.296964e+000	7.235984e+002
1.300000e+000	7.239352e+002
1.303333e+000	7.245520e+002
1.306923e+000	7.252340e+002
1.310839e+000	7.266929e+002
1.314755e+000	7.285033e+002
1.318671e+000	7.300145e+002
1.322587e+000	7.324340e+002
1.326503e+000	7.346675e+002
1.329860e+000	7.358958e+002
1.333217e+000	7.355811e+002
1.336573e+000	7.366663e+002
1.339930e+000	7.379087e+002
1.343287e+000	7.392200e+002
1.346643e+000	7.400743e+002
1.350000e+000	7.414069e+002
1.353571e+000	7.431149e+002
1.357440e+000	7.453112e+002
1.361310e+000	7.470063e+002
1.364534e+000	7.474571e+002
1.367758e+000	7.459648e+002
1.370689e+000	7.460667e+002
1.373946e+000	7.455315e+002
1.377203e+000	7.462438e+002
1.380459e+000	7.452821e+002
1.383716e+000	7.441582e+002
1.386973e+000	7.423316e+002
1.390230e+000	7.406753e+002
1.393486e+000	7.400378e+002
1.396743e+000	7.399295e+002
1.400000e+000	7.396481e+002
1.403571e+000	7.393015e+002
1.407440e+000	7.394276e+002
1.411310e+000	7.399058e+002
1.414827e+000	7.397566e+002
1.418344e+000	7.379654e+002
1.421861e+000	7.377871e+002
1.425379e+000	7.377988e+002
1.428896e+000	7.378411e+002
1.432413e+000	7.380873e+002
1.435931e+000	7.377531e+002
1.439448e+000	7.378348e+002
1.442965e+000	7.386582e+002
1.446483e+000	7.399129e+002
1.450000e+000	7.415137e+002
1.453846e+000	7.444794e+002
1.458042e+000	7.490534e+002
1.461856e+000	7.534038e+002
1.465671e+000	7.569218e+002
1.469485e+000	7.598765e+002
1.473299e+000	7.621194e+002
1.477114e+000	7.660820e+002
1.480928e+000	7.696091e+002
1.484743e+000	7.718796e+002
1.487794e+000	7.725089e+002
1.490846e+000	7.726786e+002
1.493897e+000	7.732978e+002
1.496949e+000	7.723867e+002
1.500000e+000	7.709297e+002
1.503333e+000	7.705715e+002
1.506923e+000	7.698247e+002
1.510839e+000	7.681165e+002
1.514103e+000	7.644853e+002
1.517094e+000	7.589395e+002
1.520085e+000	7.551724e+002
1.523409e+000	7.532892e+002
1.526733e+000	7.519847e+002
1.530057e+000	7.491901e+002
1.533381e+000	7.461135e+002
1.536705e+000	7.443376e+002
1.540028e+000	7.426864e+002
1.543352e+000	7.410034e+002
1.546676e+000	7.397403e+002
1.550000e+000	7.383045e+002
1.553571e+000	7.366069e+002
1.557440e+000	7.355056e+002
1.561310e+000	7.353409e+002
1.565179e+000	7.350624e+002
1.569048e+000	7.345983e+002
1.572917e+000	7.337666e+002
1.576786e+000	7.319742e+002
1.580655e+000	7.307923e+002
1.584524e+000	7.304650e+002
1.588393e+000	7.313972e+002
1.592262e+000	7.324325e+002
1.596131e+000	7.333660e+002
1.600000e+000	7.334338e+002
1.604167e+000	7.341878e+002
1.608333e+000	7.348525e+002
1.612500e+000	7.353547e+002
1.616667e+000	7.356731e+002
1.620833e+000	7.356248e+002
1.625000e+000	7.339070e+002
1.629167e+000	7.331887e+002
1.633333e+000	7.322981e+002
1.637500e+000	7.320417e+002
1.641667e+000	7.315801e+002
1.645833e+000	7.313742e+002
1.650000e+000	7.303981e+002
1.654545e+000	7.303120e+002
1.659596e+000	7.306267e+002
1.664646e+000	7.301377e+002
1.669697e+000	7.281149e+002
1.674747e+000	7.256021e+002
1.679798e+000	7.230356e+002
1.684848e+000	7.212059e+002
1.689899e+000	7.188339e+002
1.694949e+000	7.168963e+002
1.700000e+000	7.154126e+002
1.705000e+000	7.146111e+002
1.710000e+000	7.135117e+002
1.715000e+000	7.124253e+002
1.720000e+000	7.109945e+002
1.725000e+000	7.106585e+002
1.730000e+000	7.099633e+002
1.735000e+000	7.096824e+002
1.740000e+000	7.095854e+002
1.745000e+000	7.093898e+002
1.750000e+000	7.083606e+002
1.755556e+000	7.079150e+002
1.761111e+000	7.078578e+002
1.766667e+000	7.077112e+002
1.772222e+000	7.067788e+002
1.777778e+000	7.069127e+002
1.783333e+000	7.066744e+002
1.788889e+000	7.072020e+002
1.794444e+000	7.071754e+002
1.800000e+000	7.071867e+002
1.805556e+000	7.067320e+002
1.811111e+000	7.069126e+002
1.816667e+000	7.070768e+002
1.822222e+000	7.079797e+002
1.827778e+000	7.082561e+002
1.833333e+000	7.087302e+002
1.838889e+000	7.094139e+002
1.844444e+000	7.108894e+002
1.850000e+000	7.120869e+002
1.855556e+000	7.138120e+002
1.861111e+000	7.152138e+002
1.866667e+000	7.169934e+002
1.872222e+000	7.181714e+002
1.877778e+000	7.197157e+002
1.883333e+000	7.209331e+002
1.888889e+000	7.231185e+002
1.894444e+000	7.245797e+002
1.900000e+000	7.267584e+002
1.905556e+000	7.271768e+002
1.911111e+000	7.267996e+002
1.916667e+000	7.266787e+002
1.922222e+000	7.268944e+002
1.927778e+000	7.257241e+002
1.933333e+000	7.249337e+002
1.938889e+000	7.234877e+002
1.944444e+000	7.225910e+002
1.950000e+000	7.209753e+002
1.956250e+000	7.209336e+002
1.962500e+000	7.209547e+002
1.968750e+000	7.211366e+002
1.975000e+000	7.207069e+002
1.981250e+000	7.220192e+002
1.987500e+000	7.224923e+002
1.993750e+000	7.252520e+002
2.000000e+000	7.274473e+002
2.006250e+000	7.302206e+002
2.011719e+000	7.295772e+002
2.017187e+000	7.289415e+002
2.022656e+000	7.296782e+002
2.028125e+000	7.317502e+002
2.033594e+000	7.336142e+002
2.039062e+000	7.363703e+002
2.042708e+000	7.348972e+002
2.046354e+000	7.321754e+002
2.050000e+000	7.337434e+002
2.054167e+000	7.373792e+002
2.058750e+000	7.420358e+002
2.063906e+000	7.478107e+002
2.069063e+000	7.528546e+002
2.074219e+000	7.560008e+002
2.079375e+000	7.577310e+002
2.084531e+000	7.572768e+002
2.089688e+000	7.544310e+002
2.094844e+000	7.507311e+002
2.100000e+000	7.470636e+002
2.105556e+000	7.435283e+002
2.111111e+000	7.396415e+002
2.116667e+000	7.363918e+002
2.122222e+000	7.327679e+002
2.127778e+000	7.296694e+002
2.133333e+000	7.256018e+002
2.138889e+000	7.229498e+002
2.144444e+000	7.202016e+002
2.150000e+000	7.191282e+002
2.155556e+000	7.172852e+002
2.161111e+000	7.163056e+002
2.165972e+000	7.143846e+002
2.170226e+000	7.116212e+002
2.174479e+000	7.088229e+002
2.178733e+000	7.077692e+002
2.182986e+000	7.058502e+002
2.187240e+000	7.042640e+002
2.191493e+000	7.025753e+002
2.195747e+000	7.013739e+002
2.200000e+000	6.998195e+002
2.204545e+000	6.985575e+002
2.209596e+000	6.979845e+002
2.214646e+000	6.977590e+002
2.219697e+000	6.965566e+002
2.224747e+000	6.957086e+002
2.229798e+000	6.946778e+002
2.234848e+000	6.943484e+002
2.239899e+000	6.934755e+002
2.244949e+000	6.929588e+002
2.247475e+000	6.908619e+002
2.250000e+000	6.838817e+002
2.252941e+000	6.843838e+002
2.256303e+000	6.872792e+002
2.259944e+000	6.897215e+002
2.263950e+000	6.919709e+002
2.268456e+000	6.939334e+002
2.272962e+000	6.955235e+002
2.277468e+000	6.954819e+002
2.281975e+000	6.952402e+002
2.286481e+000	6.944798e+002
2.290987e+000	6.941672e+002
2.295494e+000	6.931366e+002
2.300000e+000	6.927344e+002
2.305000e+000	6.921292e+002
2.310000e+000	6.922592e+002
2.315000e+000	6.910917e+002
2.320000e+000	6.905298e+002
2.325000e+000	6.890473e+002
2.330000e+000	6.878781e+002
2.335000e+000	6.863527e+002
2.340000e+000	6.859463e+002
2.345000e+000	6.849397e+002
2.350000e+000	6.850091e+002
2.355556e+000	6.849274e+002
2.361905e+000	6.863999e+002
2.368254e+000	6.863668e+002
2.374603e+000	6.865536e+002
2.380952e+000	6.853132e+002
2.387302e+000	6.852903e+002
2.393651e+000	6.838237e+002
2.400000e+000	6.837012e+002
2.407143e+000	6.833703e+002
2.414286e+000	6.846345e+002
2.421429e+000	6.844578e+002
2.428571e+000	6.872710e+002
2.435714e+000	6.888089e+002
2.442857e+000	6.909753e+002
2.450000e+000	6.908225e+002
2.457143e+000	6.921733e+002
2.464286e+000	6.919507e+002
2.471429e+000	6.929750e+002
2.478571e+000	6.913819e+002
2.485714e+000	6.908535e+002
2.492857e+000	6.895379e+002
2.500000e+000	6.898920e+002
2.507143e+000	6.897539e+002
2.514286e+000	6.900930e+002
2.521429e+000	6.891377e+002
2.528571e+000	6.886622e+002
2.535714e+000	6.877032e+002
2.542857e+000	6.876946e+002
2.550000e+000	6.863268e+002
2.557143e+000	6.859683e+002
2.564286e+000	6.850485e+002
2.571429e+000	6.851207e+002
2.578571e+000	6.848018e+002
2.585714e+000	6.864987e+002
2.592857e+000	6.880342e+002
2.600000e+000	6.900321e+002
2.607143e+000	6.911675e+002
2.614286e+000	6.917722e+002
2.621429e+000	6.910584e+002
2.628571e+000	6.916898e+002
2.635714e+000	6.915168e+002
2.642857e+000	6.921019e+002
2.650000e+000	6.924267e+002
2.657143e+000	6.932620e+002
2.664286e+000	6.934562e+002
2.671429e+000	6.945887e+002
2.678571e+000	6.950563e+002
2.685714e+000	6.961207e+002
2.692857e+000	6.961353e+002
2.700000e+000	6.969002e+002
2.707143e+000	6.969095e+002
2.714286e+000	6.975338e+002
2.721429e+000	6.975522e+002
2.728571e+000	6.984024e+002
2.735714e+000	6.990174e+002
2.742857e+000	7.000601e+002
2.750000e+000	7.005643e+002
2.757143e+000	7.015047e+002
2.764286e+000	7.021961e+002
2.771429e+000	7.031168e+002
2.778571e+000	7.033779e+002
2.785714e+000	7.038552e+002
2.792857e+000	7.037312e+002
2.800000e+000	7.036942e+002
2.807143e+000	7.029533e+002
2.814286e+000	7.025453e+002
2.821429e+000	7.017457e+002
2.828571e+000	7.015338e+002
2.835714e+000	7.009568e+002
2.842857e+000	7.008311e+002
2.850000e+000	7.001944e+002
2.857143e+000	6.999388e+002
2.864286e+000	6.990845e+002
2.871429e+000	6.988205e+002
2.878571e+000	6.982281e+002
2.885714e+000	6.982960e+002
2.892857e+000	6.979228e+002
2.900000e+000	6.979599e+002
2.907143e+000	6.976252e+002
2.914286e+000	6.978236e+002
2.921429e+000	6.977952e+002
2.928571e+000	6.980354e+002
2.935714e+000	6.977348e+002
2.942857e+000	6.977679e+002
2.950000e+000	6.975022e+002
2.957143e+000	6.978726e+002
2.964286e+000	6.979081e+002
2.971429e+000	6.984389e+002
2.978571e+000	6.983115e+002
2.985714e+000	6.986577e+002
2.992857e+000	6.984524e+002
3.000000e+000	6.989020e+002
3.008333e+000	7.000118e+002
3.016667e+000	7.018230e+002
3.025000e+000	7.018666e+002
3.033333e+000	7.023840e+002
3.041667e+000	7.020695e+002
3.050000e+000	7.023985e+002
3.058333e+000	7.021831e+002
3.066667e+000	7.022945e+002
3.075000e+000	7.019880e+002
3.083333e+000	7.022309e+002
3.091667e+000	7.020218e+002
3.100000e+000	7.023246e+002
3.108333e+000	7.022015e+002
3.116667e+000	7.025520e+002
3.125000e+000	7.022310e+002
3.133333e+000	7.025466e+002
3.141667e+000	7.023608e+002
3.150000e+000	7.027522e+002
3.158333e+000	7.027803e+002
3.166667e+000	7.033601e+002
3.175000e+000	7.033100e+002
3.183333e+000	7.036254e+002
3.191667e+000	7.034392e+002
3.200000e+000	7.040520e+002
3.208333e+000	7.048246e+002
3.216667e+000	7.058484e+002
3.225000e+000	7.057338e+002
3.233333e+000	7.066361e+002
3.241667e+000	7.062189e+002
3.250000e+000	7.066663e+002
3.258333e+000	7.059766e+002
3.266667e+000	7.065146e+002
3.275000e+000	7.056208e+002
3.283333e+000	7.063357e+002
3.291667e+000	7.057980e+002
3.300000e+000	7.064475e+002
3.308333e+000	7.059999e+002
3.316667e+000	7.063597e+002
3.325000e+000	7.059149e+002
3.333333e+000	7.063024e+002
3.341667e+000	7.060551e+002
3.350000e+000	7.067609e+002
3.358333e+000	7.069191e+002
3.366667e+000	7.076300e+002
3.375000e+000	7.075956e+002
3.383333e+000	7.081651e+002
3.391667e+000	7.078583e+002
3.400000e+000	7.083711e+002
3.408333e+000	7.082160e+002
3.416667e+000	7.088263e+002
3.425000e+000	7.087957e+002
3.433333e+000	7.092930e+002
3.441667e+000	7.089855e+002
3.450000e+000	7.090969e+002
3.458333e+000	7.085112e+002
3.466667e+000	7.084501e+002
3.475000e+000	7.079398e+002
3.483333e+000	7.078955e+002
3.491667e+000	7.073987e+002
3.500000e+000	7.073775e+002
3.508333e+000	7.070306e+002
3.516667e+000	7.071928e+002
3.525000e+000	7.070698e+002
3.533333e+000	7.075013e+002
3.541667e+000	7.073055e+002
3.550000e+000	7.076159e+002
3.558333e+000	7.073751e+002
3.566667e+000	7.076839e+002
3.575000e+000	7.074258e+002
3.583333e+000	7.076980e+002
3.591667e+000	7.076088e+002
3.600000e+000	7.080734e+002
3.608333e+000	7.075997e+002
3.616667e+000	7.080125e+002
3.625000e+000	7.077446e+002
3.633333e+000	7.082430e+002
3.641667e+000	7.080352e+002
3.650000e+000	7.083885e+002
3.658333e+000	7.080250e+002
3.666667e+000	7.083745e+002
3.675000e+000	7.081005e+002
3.683333e+000	7.086563e+002
3.691667e+000	7.085423e+002
3.700000e+000	7.091690e+002
3.708333e+000	7.091056e+002
3.716667e+000	7.097643e+002
3.725000e+000	7.097350e+002
3.733333e+000	7.106218e+002
3.741667e+000	7.109249e+002
3.750000e+000	7.115775e+002
3.758333e+000	7.114406e+002
3.766667e+000	7.118132e+002
3.775000e+000	7.114796e+002
3.783333e+000	7.116620e+002
3.791667e+000	7.111875e+002
3.800000e+000	7.112624e+002
3.808333e+000	7.108353e+002
3.816667e+000	7.109754e+002
3.825000e+000	7.106092e+002
3.833333e+000	7.106667e+002
3.841667e+000	7.101695e+002
3.850000e+000	7.100881e+002
3.858333e+000	7.095719e+002
3.866667e+000	7.094243e+002
3.875000e+000	7.087859e+002
3.883333e+000	7.090844e+002
3.891667e+000	7.084504e+002
3.900000e+000	7.092101e+002
3.908333e+000	7.097965e+002
3.916667e+000	7.104699e+002
3.925000e+000	7.104765e+002
3.933333e+000	7.107590e+002
3.941667e+000	7.103813e+002
3.950000e+000	7.107327e+002
3.958333e+000	7.104920e+002
3.966667e+000	7.109546e+002
3.975000e+000	7.106236e+002
3.983333e+000	7.107860e+002
3.991667e+000	7.102184e+002
4.000000e+000	7.103895e+002
4.008333e+000	7.098435e+002
4.016667e+000	7.100779e+002
4.025000e+000	7.101124e+002
4.033333e+000	7.110513e+002
4.041667e+000	7.111283e+002
4.050000e+000	7.116883e+002
4.058333e+000	7.116146e+002
4.066667e+000	7.122763e+002
4.075000e+000	7.119579e+002
4.083333e+000	7.123903e+002
4.091667e+000	7.120896e+002
4.100000e+000	7.123088e+002
4.108333e+000	7.118308e+002
4.116667e+000	7.118354e+002
4.125000e+000	7.112959e+002
4.133333e+000	7.114324e+002
4.141667e+000	7.109916e+002
4.150000e+000	7.109838e+002
4.158333e+000	7.104913e+002
4.166667e+000	7.104842e+002
4.175000e+000	7.100414e+002
4.183333e+000	7.101642e+002
4.191667e+000	7.096575e+002
4.200000e+000	7.097339e+002
4.208333e+000	7.093553e+002
4.216667e+000	7.095732e+002
4.225000e+000	7.093795e+002
4.233333e+000	7.098483e+002
4.241667e+000	7.099127e+002
4.250000e+000	7.101753e+002
4.258333e+000	7.101197e+002
4.266667e+000	7.103204e+002
4.275000e+000	7.100553e+002
4.283333e+000	7.101167e+002
4.291667e+000	7.098861e+002
4.300000e+000	7.100975e+002
4.308333e+000	7.097776e+002
4.316667e+000	7.099381e+002
4.325000e+000	7.095488e+002
4.333333e+000	7.098588e+002
4.341667e+000	7.094514e+002
