#   Source : patch atmosphere
#   Faces  : 882
#   Area   : 3.500000e+001
#        Time	sum(rhoPhi)
3.333333e-002	3.559691e+003
5.000000e-002	1.295611e+003
6.500000e-002	1.555051e+003
8.000000e-002	1.889269e+003
9.500000e-002	2.210588e+003
1.100000e-001	2.475562e+003
1.250000e-001	2.727228e+003
1.400000e-001	2.959187e+003
1.550000e-001	3.161527e+003
1.700000e-001	3.391130e+003
1.850000e-001	3.650892e+003
2.000000e-001	3.968568e+003
2.166667e-001	4.317943e+003
2.350000e-001	4.690315e+003
2.556250e-001	5.150213e+003
2.736719e-001	5.500373e+003
2.894629e-001	5.768107e+003
3.032800e-001	6.001368e+003
3.170972e-001	6.233119e+003
3.309143e-001	6.494382e+003
3.447314e-001	6.710519e+003
3.585486e-001	6.940930e+003
3.723657e-001	7.121075e+003
3.861829e-001	7.274469e+003
4.000000e-001	7.437461e+003
4.142857e-001	7.601893e+003
4.275510e-001	7.733156e+003
4.408163e-001	7.860270e+003
4.552876e-001	7.984096e+003
4.713667e-001	8.179090e+003
4.874459e-001	8.382847e+003
5.015152e-001	8.514670e+003
5.155844e-001	8.608782e+003
5.296537e-001	8.738849e+003
5.437229e-001	8.897466e+003
5.577922e-001	9.120220e+003
5.718615e-001	9.214779e+003
5.859307e-001	9.197965e+003
6.000000e-001	9.153640e+003
6.142857e-001	9.097978e+003
6.285714e-001	8.989343e+003
6.428571e-001	8.820568e+003
6.559524e-001	8.624958e+003
6.690476e-001	8.455737e+003
6.821429e-001	8.296170e+003
6.952381e-001	8.161191e+003
7.083333e-001	8.034030e+003
7.214286e-001	7.900040e+003
7.345238e-001	7.768653e+003
7.476190e-001	7.654839e+003
7.607143e-001	7.585503e+003
7.738095e-001	7.551916e+003
7.825397e-001	7.450776e+003
7.912698e-001	7.446133e+003
8.000000e-001	7.471880e+003
8.100000e-001	7.555058e+003
8.211765e-001	7.666620e+003
8.330980e-001	7.746946e+003
8.459367e-001	7.873718e+003
8.599424e-001	8.004398e+003
8.755044e-001	8.188159e+003
8.910663e-001	8.305132e+003
9.066283e-001	8.398480e+003
9.221902e-001	8.481091e+003
9.377522e-001	8.557757e+003
9.533141e-001	8.570739e+003
9.688761e-001	8.565007e+003
9.844380e-001	8.578530e+003
1.000000e+000	8.564076e+003
1.016667e+000	8.444134e+003
1.035000e+000	8.316706e+003
1.048750e+000	8.181705e+003
1.062500e+000	8.049593e+003
1.076250e+000	7.922015e+003
1.086562e+000	7.744060e+003
1.096016e+000	7.629254e+003
1.105469e+000	7.596597e+003
1.115972e+000	7.595517e+003
1.127976e+000	7.609872e+003
1.139980e+000	7.561611e+003
1.151984e+000	7.485148e+003
1.163988e+000	7.398260e+003
1.175992e+000	7.332939e+003
1.187996e+000	7.315604e+003
1.200000e+000	7.321919e+003
1.214286e+000	7.369609e+003
1.229762e+000	7.392168e+003
1.246786e+000	7.387521e+003
1.263810e+000	7.354226e+003
1.280833e+000	7.283798e+003
1.297857e+000	7.237985e+003
1.314881e+000	7.232902e+003
1.331905e+000	7.201303e+003
1.345524e+000	7.103723e+003
1.359143e+000	7.059714e+003
1.372762e+000	7.018050e+003
1.386381e+000	6.998572e+003
1.400000e+000	7.010695e+003
1.415385e+000	7.045567e+003
1.432168e+000	7.073206e+003
1.448951e+000	7.110856e+003
1.464056e+000	7.084451e+003
1.477650e+000	7.046242e+003
1.491245e+000	7.033536e+003
1.504839e+000	7.055585e+003
1.518434e+000	7.069611e+003
1.532028e+000	7.076663e+003
1.545622e+000	7.069786e+003
1.559217e+000	7.013748e+003
1.569413e+000	6.873359e+003
1.579608e+000	6.807981e+003
1.589804e+000	6.754608e+003
1.600000e+000	6.709170e+003
1.611111e+000	6.707782e+003
1.623704e+000	6.751393e+003
1.637265e+000	6.780962e+003
1.652059e+000	6.800798e+003
1.666853e+000	6.818526e+003
1.681647e+000	6.866134e+003
1.696441e+000	6.927327e+003
1.711235e+000	6.941606e+003
1.726030e+000	6.927125e+003
1.740824e+000	6.908813e+003
1.755618e+000	6.886048e+003
1.770412e+000	6.841024e+003
1.785206e+000	6.774194e+003
1.800000e+000	6.715165e+003
1.816667e+000	6.713659e+003
1.835000e+000	6.715417e+003
1.855625e+000	6.744215e+003
1.876250e+000	6.740846e+003
1.896875e+000	6.765210e+003
1.917500e+000	6.828891e+003
1.934000e+000	6.801179e+003
1.950500e+000	6.815340e+003
1.967000e+000	6.819635e+003
1.983500e+000	6.814917e+003
2.000000e+000	6.824497e+003
2.018182e+000	6.891200e+003
2.038384e+000	6.947579e+003
2.058586e+000	6.922443e+003
2.078788e+000	6.870240e+003
2.096104e+000	6.766822e+003
2.113420e+000	6.716701e+003
2.130736e+000	6.698070e+003
2.148052e+000	6.681681e+003
2.165368e+000	6.679420e+003
2.182684e+000	6.686363e+003
2.200000e+000	6.691396e+003
2.218182e+000	6.718135e+003
2.238384e+000	6.774488e+003
2.258586e+000	6.771271e+003
2.278788e+000	6.736155e+003
2.298990e+000	6.701142e+003
2.319192e+000	6.687804e+003
2.339394e+000	6.667988e+003
2.359596e+000	6.647769e+003
2.379798e+000	6.630283e+003
2.400000e+000	6.642044e+003
2.422222e+000	6.700423e+003
2.444444e+000	6.722300e+003
2.466667e+000	6.744314e+003
2.488889e+000	6.755828e+003
2.511111e+000	6.742036e+003
2.533333e+000	6.720265e+003
2.555556e+000	6.697799e+003
2.577778e+000	6.680994e+003
2.600000e+000	6.654436e+003
2.622222e+000	6.622365e+003
2.644444e+000	6.597353e+003
2.666667e+000	6.572515e+003
2.688889e+000	6.549877e+003
2.711111e+000	6.530521e+003
2.733333e+000	6.523410e+003
2.755556e+000	6.520867e+003
2.777778e+000	6.516062e+003
2.800000e+000	6.511365e+003
2.822222e+000	6.505419e+003
2.844444e+000	6.497118e+003
2.866667e+000	6.489749e+003
2.888889e+000	6.483809e+003
2.911111e+000	6.476889e+003
2.933333e+000	6.470181e+003
2.955556e+000	6.461814e+003
2.977778e+000	6.459927e+003
3.000000e+000	6.453627e+003
3.022222e+000	6.448159e+003
3.044444e+000	6.438295e+003
3.066667e+000	6.432833e+003
3.088889e+000	6.421959e+003
3.111111e+000	6.412240e+003
3.133333e+000	6.396260e+003
3.155556e+000	6.377522e+003
3.177778e+000	6.366970e+003
3.200000e+000	6.358434e+003
3.222222e+000	6.339046e+003
3.244444e+000	6.313256e+003
3.266667e+000	6.294028e+003
3.288889e+000	6.281653e+003
3.311111e+000	6.269571e+003
3.333333e+000	6.261783e+003
3.355556e+000	6.249937e+003
3.377778e+000	6.243634e+003
3.400000e+000	6.240621e+003
3.422222e+000	6.229256e+003
3.444444e+000	6.214754e+003
3.466667e+000	6.204739e+003
3.488889e+000	6.199975e+003
3.511111e+000	6.189702e+003
3.533333e+000	6.179421e+003
3.555556e+000	6.174335e+003
3.577778e+000	6.168522e+003
3.600000e+000	6.162495e+003
3.622222e+000	6.155036e+003
3.644444e+000	6.142636e+003
3.666667e+000	6.130327e+003
3.688889e+000	6.120662e+003
3.711111e+000	6.112574e+003
3.733333e+000	6.106108e+003
3.755556e+000	6.095852e+003
3.777778e+000	6.089509e+003
3.800000e+000	6.088269e+003
3.822222e+000	6.086835e+003
3.844444e+000	6.082981e+003
3.866667e+000	6.078525e+003
3.888889e+000	6.068775e+003
3.911111e+000	6.060041e+003
3.933333e+000	6.052749e+003
3.955556e+000	6.052857e+003
3.977778e+000	6.051569e+003
4.000000e+000	6.045855e+003
4.022222e+000	6.032695e+003
4.044444e+000	6.022510e+003
4.066667e+000	6.011743e+003
4.088889e+000	6.006256e+003
4.111111e+000	6.012235e+003
4.133333e+000	6.016841e+003
4.155556e+000	6.016506e+003
4.177778e+000	6.017535e+003
4.200000e+000	6.015947e+003
4.222222e+000	6.014078e+003
4.244444e+000	6.010134e+003
4.266667e+000	6.010181e+003
4.288889e+000	6.016553e+003
4.311111e+000	6.025808e+003
4.333333e+000	6.034249e+003
4.355556e+000	6.037834e+003
4.377778e+000	6.032296e+003
4.400000e+000	6.023057e+003
4.422222e+000	6.013156e+003
4.444444e+000	6.004272e+003
4.466667e+000	5.999880e+003
4.488889e+000	5.995881e+003
4.511111e+000	5.990902e+003
4.533333e+000	5.989680e+003
4.555556e+000	5.990307e+003
4.577778e+000	5.992071e+003
4.600000e+000	5.983499e+003
4.622222e+000	5.974717e+003
4.644444e+000	5.971094e+003
4.666667e+000	5.965549e+003
4.688889e+000	5.963015e+003
4.711111e+000	5.967239e+003
4.733333e+000	5.969410e+003
4.755556e+000	5.973075e+003
4.777778e+000	5.974765e+003
4.800000e+000	5.972629e+003
4.822222e+000	5.969938e+003
4.844444e+000	5.972069e+003
4.866667e+000	5.972124e+003
4.888889e+000	5.971816e+003
4.911111e+000	5.976527e+003
4.933333e+000	5.985163e+003
4.955556e+000	5.989921e+003
4.977778e+000	5.992054e+003
5.000000e+000	5.990832e+003
5.022222e+000	5.984178e+003
5.044444e+000	5.975076e+003
5.066667e+000	5.972868e+003
5.088889e+000	5.974196e+003
5.111111e+000	5.974897e+003
5.133333e+000	5.977382e+003
5.155556e+000	5.976138e+003
5.177778e+000	5.975102e+003
5.200000e+000	5.975855e+003
5.222222e+000	5.979299e+003
5.244444e+000	5.974629e+003
5.266667e+000	5.970349e+003
5.288889e+000	5.966847e+003
5.311111e+000	5.963714e+003
5.333333e+000	5.965550e+003
5.355556e+000	5.970301e+003
5.377778e+000	5.968965e+003
5.400000e+000	5.964402e+003
5.422222e+000	5.958814e+003
5.444444e+000	5.958675e+003
5.466667e+000	5.956548e+003
5.488889e+000	5.954937e+003
5.511111e+000	5.956224e+003
5.533333e+000	5.962389e+003
5.555556e+000	5.963774e+003
5.577778e+000	5.963147e+003
5.600000e+000	5.962567e+003
5.622222e+000	5.960823e+003
5.644444e+000	5.960473e+003
5.666667e+000	5.962603e+003
5.688889e+000	5.964861e+003
5.711111e+000	5.968789e+003
5.733333e+000	5.971842e+003
5.755556e+000	5.964924e+003
5.777778e+000	5.957033e+003
5.800000e+000	5.950217e+003
5.822222e+000	5.941949e+003
5.844444e+000	5.930160e+003
5.866667e+000	5.923417e+003
5.888889e+000	5.920182e+003
5.911111e+000	5.918803e+003
5.933333e+000	5.919677e+003
5.955556e+000	5.912775e+003
5.977778e+000	5.912451e+003
6.000000e+000	5.918920e+003
6.022222e+000	5.929311e+003
6.044444e+000	5.936230e+003
6.066667e+000	5.946145e+003
6.088889e+000	5.959504e+003
6.111111e+000	5.966152e+003
6.133333e+000	5.962935e+003
6.155556e+000	5.960131e+003
6.177778e+000	5.953805e+003
6.200000e+000	5.951084e+003
6.222222e+000	5.948360e+003
6.244444e+000	5.944594e+003
6.266667e+000	5.939688e+003
6.288889e+000	5.937814e+003
6.311111e+000	5.939922e+003
6.333333e+000	5.942982e+003
6.355556e+000	5.946962e+003
6.377778e+000	5.943456e+003
6.400000e+000	5.942603e+003
6.422222e+000	5.944479e+003
6.444444e+000	5.946952e+003
6.466667e+000	5.947138e+003
6.488889e+000	5.946991e+003
6.511111e+000	5.946768e+003
6.533333e+000	5.946412e+003
6.555556e+000	5.947023e+003
6.577778e+000	5.946764e+003
6.600000e+000	5.944809e+003
6.622222e+000	5.947119e+003
6.644444e+000	5.948107e+003
6.666667e+000	5.946088e+003
6.688889e+000	5.944385e+003
6.711111e+000	5.938653e+003
6.733333e+000	5.933968e+003
6.755556e+000	5.932654e+003
6.777778e+000	5.935202e+003
6.800000e+000	5.936969e+003
6.822222e+000	5.938207e+003
6.844444e+000	5.937749e+003
6.866667e+000	5.935318e+003
6.888889e+000	5.933363e+003
6.911111e+000	5.935159e+003
6.933333e+000	5.936428e+003
6.955556e+000	5.938143e+003
6.977778e+000	5.943365e+003
7.000000e+000	5.954085e+003
7.022222e+000	5.962334e+003
7.044444e+000	5.966291e+003
7.066667e+000	5.964416e+003
7.088889e+000	5.957999e+003
7.111111e+000	5.952896e+003
7.133333e+000	5.948470e+003
7.155556e+000	5.944012e+003
7.177778e+000	5.938692e+003
7.200000e+000	5.933871e+003
7.222222e+000	5.930991e+003
7.244444e+000	5.930437e+003
7.266667e+000	5.931455e+003
7.288889e+000	5.936504e+003
7.311111e+000	5.940577e+003
7.333333e+000	5.945208e+003
7.355556e+000	5.950060e+003
7.377778e+000	5.952992e+003
7.400000e+000	5.955227e+003
7.422222e+000	5.955907e+003
7.444444e+000	5.962496e+003
7.466667e+000	5.969431e+003
7.488889e+000	5.973866e+003
7.511111e+000	5.974315e+003
7.533333e+000	5.971667e+003
7.555556e+000	5.972050e+003
7.577778e+000	5.971348e+003
7.600000e+000	5.969739e+003
7.622222e+000	5.966772e+003
7.644444e+000	5.963266e+003
7.666667e+000	5.963287e+003
7.688889e+000	5.966113e+003
7.711111e+000	5.967392e+003
7.733333e+000	5.957587e+003
7.755556e+000	5.947786e+003
7.777778e+000	5.941044e+003
7.800000e+000	5.935156e+003
7.822222e+000	5.928616e+003
7.844444e+000	5.922024e+003
7.866667e+000	5.919792e+003
7.888889e+000	5.920484e+003
7.911111e+000	5.923333e+003
7.933333e+000	5.928951e+003
7.955556e+000	5.933505e+003
7.977778e+000	5.937081e+003
8.000000e+000	5.941479e+003
8.022222e+000	5.946771e+003
8.044444e+000	5.953687e+003
8.066667e+000	5.959150e+003
8.088889e+000	5.965320e+003
8.111111e+000	5.967275e+003
8.133333e+000	5.966343e+003
8.155556e+000	5.960294e+003
8.177778e+000	5.955015e+003
8.200000e+000	5.952675e+003
8.222222e+000	5.951872e+003
8.244444e+000	5.948863e+003
8.266667e+000	5.941846e+003
8.288889e+000	5.936021e+003
8.311111e+000	5.939054e+003
8.333333e+000	5.945792e+003
8.355556e+000	5.946765e+003
8.377778e+000	5.944491e+003
8.400000e+000	5.942990e+003
8.422222e+000	5.942499e+003
8.444444e+000	5.940787e+003
8.466667e+000	5.938857e+003
8.488889e+000	5.936909e+003
8.511111e+000	5.935565e+003
8.533333e+000	5.934968e+003
8.555556e+000	5.931555e+003
8.577778e+000	5.929462e+003
8.600000e+000	5.929690e+003
8.622222e+000	5.929072e+003
8.644444e+000	5.934845e+003
8.666667e+000	5.945796e+003
8.688889e+000	5.953252e+003
8.711111e+000	5.960266e+003
8.733333e+000	5.961503e+003
8.755556e+000	5.956562e+003
8.777778e+000	5.948254e+003
8.800000e+000	5.940326e+003
8.822222e+000	5.938787e+003
8.844444e+000	5.937935e+003
8.866667e+000	5.936237e+003
8.888889e+000	5.935158e+003
8.911111e+000	5.938029e+003
8.933333e+000	5.942921e+003
8.955556e+000	5.947922e+003
8.977778e+000	5.941525e+003
9.000000e+000	5.934129e+003
9.022222e+000	5.927569e+003
9.044444e+000	5.922721e+003
9.066667e+000	5.919870e+003
9.088889e+000	5.921465e+003
9.111111e+000	5.926178e+003
9.133333e+000	5.931665e+003
9.155556e+000	5.934881e+003
9.177778e+000	5.932743e+003
9.200000e+000	5.932384e+003
9.222222e+000	5.932518e+003
9.244444e+000	5.934417e+003
9.266667e+000	5.938593e+003
9.288889e+000	5.943392e+003
9.311111e+000	5.948727e+003
9.333333e+000	5.957495e+003
9.355556e+000	5.964415e+003
9.377778e+000	5.962669e+003
9.400000e+000	5.956872e+003
9.422222e+000	5.955632e+003
9.444444e+000	5.960025e+003
9.466667e+000	5.964156e+003
9.488889e+000	5.966458e+003
9.511111e+000	5.964540e+003
9.533333e+000	5.967570e+003
9.555556e+000	5.972445e+003
9.577778e+000	5.976036e+003
9.600000e+000	5.967212e+003
9.622222e+000	5.956592e+003
9.644444e+000	5.947665e+003
9.666667e+000	5.941959e+003
9.688889e+000	5.938606e+003
9.711111e+000	5.935844e+003
9.733333e+000	5.934255e+003
9.755556e+000	5.932807e+003
9.777778e+000	5.933256e+003
9.800000e+000	5.931247e+003
9.822222e+000	5.928476e+003
9.844444e+000	5.930276e+003
9.866667e+000	5.932172e+003
9.888889e+000	5.933322e+003
9.911111e+000	5.937618e+003
9.933333e+000	5.943874e+003
9.955556e+000	5.951886e+003
9.977778e+000	5.959287e+003
1.000000e+001	5.963548e+003
