#   Source : patch outlet1
#   Faces  : 832
#   Area   : 3.750000e+000
#        Time	sum(rhoPhi)
1.666667e-002	0.000000e+000
2.500000e-002	-2.405019e-001
3.333333e-002	3.925050e+000
3.888889e-002	2.656426e+000
4.444444e-002	5.920787e+000
5.000000e-002	4.288988e+000
5.625000e-002	7.660780e+000
6.250000e-002	6.332196e+000
6.875000e-002	9.710379e+000
7.500000e-002	8.266203e+000
8.125000e-002	1.148411e+001
8.750000e-002	9.244819e+000
9.375000e-002	1.241380e+001
1.000000e-001	1.002975e+001
1.071429e-001	1.319257e+001
1.142857e-001	1.094832e+001
1.214286e-001	1.407696e+001
1.285714e-001	1.177792e+001
1.357143e-001	1.477335e+001
1.428571e-001	1.247127e+001
1.500000e-001	1.537645e+001
1.571429e-001	1.284374e+001
1.642857e-001	1.546624e+001
1.714286e-001	1.257008e+001
1.785714e-001	1.484943e+001
1.857143e-001	1.250304e+001
1.928571e-001	1.447099e+001
2.000000e-001	1.244426e+001
2.071429e-001	1.436451e+001
2.142857e-001	1.220253e+001
2.214286e-001	1.412997e+001
2.285714e-001	1.200819e+001
2.357143e-001	1.410098e+001
2.428571e-001	1.221066e+001
2.500000e-001	1.474441e+001
2.571429e-001	1.281804e+001
2.642857e-001	1.559072e+001
2.714286e-001	1.361702e+001
2.785714e-001	1.619559e+001
2.839286e-001	1.412971e+001
2.892857e-001	1.643991e+001
2.946429e-001	1.456999e+001
2.973214e-001	1.649586e+001
3.000000e-001	1.476614e+001
3.031250e-001	1.677448e+001
3.067308e-001	1.512649e+001
3.106643e-001	1.704197e+001
3.150350e-001	1.543080e+001
3.194056e-001	1.722507e+001
3.237762e-001	1.562662e+001
3.275225e-001	1.727519e+001
3.312687e-001	1.569767e+001
3.350150e-001	1.725796e+001
3.387612e-001	1.571336e+001
3.425075e-001	1.728048e+001
3.462537e-001	1.568019e+001
3.481269e-001	1.711173e+001
3.500000e-001	1.552165e+001
3.521739e-001	1.713189e+001
3.546911e-001	1.552693e+001
3.575229e-001	1.716961e+001
3.605570e-001	1.545765e+001
3.638439e-001	1.715494e+001
3.674595e-001	1.532146e+001
3.707135e-001	1.705147e+001
3.739676e-001	1.499829e+001
3.768601e-001	1.689828e+001
3.791741e-001	1.463065e+001
3.812567e-001	1.680726e+001
3.833393e-001	1.442677e+001
3.854219e-001	1.680177e+001
3.875044e-001	1.432955e+001
3.895870e-001	1.679130e+001
3.916696e-001	1.425365e+001
3.937522e-001	1.678372e+001
3.958348e-001	1.418885e+001
3.979174e-001	1.677382e+001
4.000000e-001	1.413734e+001
4.023810e-001	1.677945e+001
4.050265e-001	1.415347e+001
4.075250e-001	1.676909e+001
4.101797e-001	1.419534e+001
4.130240e-001	1.680480e+001
4.158683e-001	1.427400e+001
4.189712e-001	1.678667e+001
4.217920e-001	1.434302e+001
4.243563e-001	1.663398e+001
4.269207e-001	1.437356e+001
4.294851e-001	1.662402e+001
4.320494e-001	1.441596e+001
4.346138e-001	1.661657e+001
4.371782e-001	1.444050e+001
4.397425e-001	1.660167e+001
4.423069e-001	1.445147e+001
4.448713e-001	1.657638e+001
4.474356e-001	1.449297e+001
4.500000e-001	1.657037e+001
4.525000e-001	1.451777e+001
4.547619e-001	1.660054e+001
4.569161e-001	1.450640e+001
4.589677e-001	1.665772e+001
4.610193e-001	1.451385e+001
4.630709e-001	1.672773e+001
4.651226e-001	1.451810e+001
4.671742e-001	1.678807e+001
4.692258e-001	1.450907e+001
4.712774e-001	1.682726e+001
4.734868e-001	1.450901e+001
4.756963e-001	1.687926e+001
4.781266e-001	1.450278e+001
4.805570e-001	1.693516e+001
4.829874e-001	1.444809e+001
4.854178e-001	1.694817e+001
4.875009e-001	1.434194e+001
4.895841e-001	1.693199e+001
4.916673e-001	1.430516e+001
4.937505e-001	1.695877e+001
4.958336e-001	1.425588e+001
4.979168e-001	1.694543e+001
5.000000e-001	1.419709e+001
5.023810e-001	1.699020e+001
5.050265e-001	1.428652e+001
5.078373e-001	1.706651e+001
5.108489e-001	1.435911e+001
5.141115e-001	1.712738e+001
5.171022e-001	1.438083e+001
5.200929e-001	1.713141e+001
5.230836e-001	1.441671e+001
5.257753e-001	1.712633e+001
5.284669e-001	1.450049e+001
5.311585e-001	1.716754e+001
5.338502e-001	1.462002e+001
5.361573e-001	1.716259e+001
5.384644e-001	1.470253e+001
5.407715e-001	1.718606e+001
5.430786e-001	1.482892e+001
5.453858e-001	1.722180e+001
5.476929e-001	1.497201e+001
5.500000e-001	1.726950e+001
5.525000e-001	1.515428e+001
5.551389e-001	1.736384e+001
5.579427e-001	1.539487e+001
5.607465e-001	1.750926e+001
5.637660e-001	1.577490e+001
5.667855e-001	1.771118e+001
5.698050e-001	1.619546e+001
5.728245e-001	1.794321e+001
5.758440e-001	1.659647e+001
5.778570e-001	1.809826e+001
5.795603e-001	1.684537e+001
5.812636e-001	1.826443e+001
5.831373e-001	1.709829e+001
5.852451e-001	1.842332e+001
5.873529e-001	1.733883e+001
5.894608e-001	1.854747e+001
5.915686e-001	1.753831e+001
5.936765e-001	1.871952e+001
5.957843e-001	1.770530e+001
5.978922e-001	1.883643e+001
6.000000e-001	1.784355e+001
6.023810e-001	1.893921e+001
6.050265e-001	1.797078e+001
6.080247e-001	1.903514e+001
6.112536e-001	1.805488e+001
6.147760e-001	1.908914e+001
6.182984e-001	1.808196e+001
6.218208e-001	1.904976e+001
6.253432e-001	1.805163e+001
6.288656e-001	1.899042e+001
6.323880e-001	1.806905e+001
6.353233e-001	1.891091e+001
6.382587e-001	1.807851e+001
6.411940e-001	1.885491e+001
6.441293e-001	1.811259e+001
6.470647e-001	1.881611e+001
6.500000e-001	1.816356e+001
6.531250e-001	1.878417e+001
6.564732e-001	1.819778e+001
6.601004e-001	1.877950e+001
6.637277e-001	1.823737e+001
6.670252e-001	1.873276e+001
6.706890e-001	1.829019e+001
6.739458e-001	1.870910e+001
6.772026e-001	1.826937e+001
6.804594e-001	1.870913e+001
6.837161e-001	1.837356e+001
6.869729e-001	1.876438e+001
6.902297e-001	1.846897e+001
6.934865e-001	1.881379e+001
6.967432e-001	1.857952e+001
7.000000e-001	1.886333e+001
7.033333e-001	1.871117e+001
7.066667e-001	1.895551e+001
7.100000e-001	1.881819e+001
7.133333e-001	1.916083e+001
7.170000e-001	1.895649e+001
7.206667e-001	1.937906e+001
7.243333e-001	1.911394e+001
7.280000e-001	1.963697e+001
7.311429e-001	1.931416e+001
7.342857e-001	1.991108e+001
7.369048e-001	1.950740e+001
7.395238e-001	2.019054e+001
7.416190e-001	1.966744e+001
7.437143e-001	2.048136e+001
7.458095e-001	1.980597e+001
7.479048e-001	2.073192e+001
7.500000e-001	1.992434e+001
7.522727e-001	2.097183e+001
7.547847e-001	2.004381e+001
7.574444e-001	2.120817e+001
7.602815e-001	2.013873e+001
7.633367e-001	2.148361e+001
7.666698e-001	2.034403e+001
7.700028e-001	2.182451e+001
7.733358e-001	2.058018e+001
7.766688e-001	2.218849e+001
7.800019e-001	2.085581e+001
7.833349e-001	2.253775e+001
7.866679e-001	2.114155e+001
7.900009e-001	2.287539e+001
7.933340e-001	2.140583e+001
7.966670e-001	2.314516e+001
7.983335e-001	2.152716e+001
8.000000e-001	2.333827e+001
8.019231e-001	2.165240e+001
8.042125e-001	2.348120e+001
8.067562e-001	2.175447e+001
8.096391e-001	2.361393e+001
8.127438e-001	2.197622e+001
8.161307e-001	2.383920e+001
8.198940e-001	2.228122e+001
8.236572e-001	2.406126e+001
8.269501e-001	2.262053e+001
8.298313e-001	2.430217e+001
8.327126e-001	2.288718e+001
8.355938e-001	2.451893e+001
8.384750e-001	2.308601e+001
8.413563e-001	2.469723e+001
8.442375e-001	2.328502e+001
8.471188e-001	2.490767e+001
8.500000e-001	2.351311e+001
8.531250e-001	2.515749e+001
8.564732e-001	2.373751e+001
8.601004e-001	2.545248e+001
8.640904e-001	2.397543e+001
8.676814e-001	2.571240e+001
8.712723e-001	2.412902e+001
8.748633e-001	2.591219e+001
8.784542e-001	2.430975e+001
8.820452e-001	2.607814e+001
8.856362e-001	2.446796e+001
8.892271e-001	2.619050e+001
8.928181e-001	2.455204e+001
8.964090e-001	2.624173e+001
9.000000e-001	2.467975e+001
9.038462e-001	2.635650e+001
9.080420e-001	2.494986e+001
9.118563e-001	2.668663e+001
9.160945e-001	2.544039e+001
9.203327e-001	2.726110e+001
9.245709e-001	2.613306e+001
9.288091e-001	2.793741e+001
9.330473e-001	2.683083e+001
9.372854e-001	2.861315e+001
9.415236e-001	2.755372e+001
9.457618e-001	2.929342e+001
9.500000e-001	2.825593e+001
9.541667e-001	2.996916e+001
9.583333e-001	2.899517e+001
9.625000e-001	3.081671e+001
9.666667e-001	3.000320e+001
9.708333e-001	3.205050e+001
9.750000e-001	3.115068e+001
9.791667e-001	3.313753e+001
9.833333e-001	3.187162e+001
9.875000e-001	3.385272e+001
9.916667e-001	3.248352e+001
9.944444e-001	3.432018e+001
9.972222e-001	3.284931e+001
1.000000e+000	3.458392e+001
1.003125e+000	3.313569e+001
1.006473e+000	3.483080e+001
1.010100e+000	3.341669e+001
1.014090e+000	3.507725e+001
1.018080e+000	3.375905e+001
1.022070e+000	3.532301e+001
1.026060e+000	3.403194e+001
1.030050e+000	3.546764e+001
1.034040e+000	3.423398e+001
1.038030e+000	3.554885e+001
1.042020e+000	3.428433e+001
1.046010e+000	3.560489e+001
1.048005e+000	3.434002e+001
1.050000e+000	3.560288e+001
1.052381e+000	3.433281e+001
1.055026e+000	3.556726e+001
1.058025e+000	3.430152e+001
1.061254e+000	3.551510e+001
1.064776e+000	3.425851e+001
1.068690e+000	3.550213e+001
1.072604e+000	3.426733e+001
1.076517e+000	3.550562e+001
1.080431e+000	3.431054e+001
1.084345e+000	3.556405e+001
1.088259e+000	3.445750e+001
1.092172e+000	3.570611e+001
1.096086e+000	3.469571e+001
1.100000e+000	3.591961e+001
1.104167e+000	3.503567e+001
1.108750e+000	3.618225e+001
1.113333e+000	3.540327e+001
1.117407e+000	3.639660e+001
1.121481e+000	3.578301e+001
1.125556e+000	3.685605e+001
1.129630e+000	3.659723e+001
1.133704e+000	3.780936e+001
1.137778e+000	3.784840e+001
1.141852e+000	3.911275e+001
1.145926e+000	3.929676e+001
1.150000e+000	4.042261e+001
1.154167e+000	4.047336e+001
1.158333e+000	4.136588e+001
1.162121e+000	4.150956e+001
1.165565e+000	4.233244e+001
1.169008e+000	4.234125e+001
1.172452e+000	4.307879e+001
1.175895e+000	4.343804e+001
1.179339e+000	4.455334e+001
1.182782e+000	4.517596e+001
1.186226e+000	4.622063e+001
1.189669e+000	4.662550e+001
1.193113e+000	4.746033e+001
1.196556e+000	4.793569e+001
1.200000e+000	4.870363e+001
1.203333e+000	4.938959e+001
1.206444e+000	5.043245e+001
1.209348e+000	5.130939e+001
1.212475e+000	5.227180e+001
1.215362e+000	5.285198e+001
1.218026e+000	5.334271e+001
1.220933e+000	5.375910e+001
1.223355e+000	5.407601e+001
1.225576e+000	5.422637e+001
1.227796e+000	5.465109e+001
1.230263e+000	5.512678e+001
1.232730e+000	5.560173e+001
1.235197e+000	5.579689e+001
1.237664e+000	5.599320e+001
1.240132e+000	5.597223e+001
1.242599e+000	5.599462e+001
1.245066e+000	5.576753e+001
1.247533e+000	5.595351e+001
1.250000e+000	5.605200e+001
1.252632e+000	5.696006e+001
1.255418e+000	5.765108e+001
1.258390e+000	5.851227e+001
1.261362e+000	5.851456e+001
1.264582e+000	5.909066e+001
1.268124e+000	5.894937e+001
1.271666e+000	5.913791e+001
1.275207e+000	5.867598e+001
1.278749e+000	5.910131e+001
1.281785e+000	5.804950e+001
1.284821e+000	5.829810e+001
1.287857e+000	5.787142e+001
1.290893e+000	5.798225e+001
1.293928e+000	5.757628e+001
1.296964e+000	5.784352e+001
1.300000e+000	5.764590e+001
1.303333e+000	5.850382e+001
1.306923e+000	5.871323e+001
1.310839e+000	5.959609e+001
1.314755e+000	5.933590e+001
1.318671e+000	5.983139e+001
1.322587e+000	5.944226e+001
1.326503e+000	6.002194e+001
1.329860e+000	5.916041e+001
1.333217e+000	5.973213e+001
1.336573e+000	5.935740e+001
1.339930e+000	6.002048e+001
1.343287e+000	5.968461e+001
1.346643e+000	6.045007e+001
1.350000e+000	6.018111e+001
1.353571e+000	6.129458e+001
1.357440e+000	6.158793e+001
1.361310e+000	6.288357e+001
1.364534e+000	6.212684e+001
1.367758e+000	6.360445e+001
1.370689e+000	6.353183e+001
1.373946e+000	6.571757e+001
1.377203e+000	6.645088e+001
1.380459e+000	6.840492e+001
1.383716e+000	6.936518e+001
1.386973e+000	7.157734e+001
1.390230e+000	7.303364e+001
1.393486e+000	7.577941e+001
1.396743e+000	7.808403e+001
1.400000e+000	8.200153e+001
1.403571e+000	8.780460e+001
1.407440e+000	9.609938e+001
1.411310e+000	1.045510e+002
1.414827e+000	1.118962e+002
1.418344e+000	1.210958e+002
1.421861e+000	1.318177e+002
1.425379e+000	1.454711e+002
1.428896e+000	1.602589e+002
1.432413e+000	1.767929e+002
1.435931e+000	1.926724e+002
1.439448e+000	2.065742e+002
1.442965e+000	2.179420e+002
1.446483e+000	2.275396e+002
1.450000e+000	2.353775e+002
1.453846e+000	2.466718e+002
1.458042e+000	2.579740e+002
1.461856e+000	2.660823e+002
1.465671e+000	2.784413e+002
1.469485e+000	2.919835e+002
1.473299e+000	3.053125e+002
1.477114e+000	3.180735e+002
1.480928e+000	3.285994e+002
1.484743e+000	3.360066e+002
1.487794e+000	3.392201e+002
1.490846e+000	3.410799e+002
1.493897e+000	3.399424e+002
1.496949e+000	3.381640e+002
1.500000e+000	3.361201e+002
1.503333e+000	3.338523e+002
1.506923e+000	3.293588e+002
1.510839e+000	3.234242e+002
1.514103e+000	3.198044e+002
1.517094e+000	3.192330e+002
1.520085e+000	3.202745e+002
1.523409e+000	3.264882e+002
1.526733e+000	3.350285e+002
1.530057e+000	3.416252e+002
1.533381e+000	3.417226e+002
1.536705e+000	3.385305e+002
1.540028e+000	3.358396e+002
1.543352e+000	3.356514e+002
1.546676e+000	3.362247e+002
1.550000e+000	3.352644e+002
1.553571e+000	3.347691e+002
1.557440e+000	3.342849e+002
1.561310e+000	3.379137e+002
1.565179e+000	3.466211e+002
1.569048e+000	3.624405e+002
1.572917e+000	3.813962e+002
1.576786e+000	4.010114e+002
1.580655e+000	4.190972e+002
1.584524e+000	4.321665e+002
1.588393e+000	4.418276e+002
1.592262e+000	4.499450e+002
1.596131e+000	4.621623e+002
1.600000e+000	4.753019e+002
1.604167e+000	4.953032e+002
1.608333e+000	5.120048e+002
1.612500e+000	5.264817e+002
1.616667e+000	5.384756e+002
1.620833e+000	5.508115e+002
1.625000e+000	5.630976e+002
1.629167e+000	5.749312e+002
1.633333e+000	5.903313e+002
1.637500e+000	6.069300e+002
1.641667e+000	6.212405e+002
1.645833e+000	6.328421e+002
1.650000e+000	6.424375e+002
1.654545e+000	6.552895e+002
1.659596e+000	6.713085e+002
1.664646e+000	6.843341e+002
1.669697e+000	6.996489e+002
1.674747e+000	7.159420e+002
1.679798e+000	7.333215e+002
1.684848e+000	7.525370e+002
1.689899e+000	7.743276e+002
1.694949e+000	7.935922e+002
1.700000e+000	8.157808e+002
1.705000e+000	8.409405e+002
1.710000e+000	8.706573e+002
1.715000e+000	9.036305e+002
1.720000e+000	9.426306e+002
1.725000e+000	9.806710e+002
1.730000e+000	1.022377e+003
1.735000e+000	1.062004e+003
1.740000e+000	1.104457e+003
1.745000e+000	1.145725e+003
1.750000e+000	1.189123e+003
1.755556e+000	1.236069e+003
1.761111e+000	1.283390e+003
1.766667e+000	1.325692e+003
1.772222e+000	1.373481e+003
1.777778e+000	1.424290e+003
1.783333e+000	1.486453e+003
1.788889e+000	1.546460e+003
1.794444e+000	1.610239e+003
1.800000e+000	1.666922e+003
1.805556e+000	1.720444e+003
1.811111e+000	1.765185e+003
1.816667e+000	1.804752e+003
1.822222e+000	1.831451e+003
1.827778e+000	1.851780e+003
1.833333e+000	1.866233e+003
1.838889e+000	1.877037e+003
1.844444e+000	1.885572e+003
1.850000e+000	1.902549e+003
1.855556e+000	1.923370e+003
1.861111e+000	1.946141e+003
1.866667e+000	1.964646e+003
1.872222e+000	1.982173e+003
1.877778e+000	1.994696e+003
1.883333e+000	2.008192e+003
1.888889e+000	2.020816e+003
1.894444e+000	2.036136e+003
1.900000e+000	2.047016e+003
1.905556e+000	2.055765e+003
1.911111e+000	2.056950e+003
1.916667e+000	2.055617e+003
1.922222e+000	2.052345e+003
1.927778e+000	2.046451e+003
1.933333e+000	2.037608e+003
1.938889e+000	2.033456e+003
1.944444e+000	2.030875e+003
1.950000e+000	2.035308e+003
1.956250e+000	2.047667e+003
1.962500e+000	2.071831e+003
1.968750e+000	2.102492e+003
1.975000e+000	2.142343e+003
1.981250e+000	2.185204e+003
1.987500e+000	2.233892e+003
1.993750e+000	2.278808e+003
2.000000e+000	2.319427e+003
2.006250e+000	2.352802e+003
2.011719e+000	2.382693e+003
2.017187e+000	2.402374e+003
2.022656e+000	2.413364e+003
2.028125e+000	2.414991e+003
2.033594e+000	2.414147e+003
2.039062e+000	2.413624e+003
2.042708e+000	2.417287e+003
2.046354e+000	2.414896e+003
2.050000e+000	2.413685e+003
2.054167e+000	2.414150e+003
2.058750e+000	2.415832e+003
2.063906e+000	2.420094e+003
2.069063e+000	2.432901e+003
2.074219e+000	2.447175e+003
2.079375e+000	2.468728e+003
2.084531e+000	2.497197e+003
2.089688e+000	2.533963e+003
2.094844e+000	2.578983e+003
2.100000e+000	2.631654e+003
2.105556e+000	2.691494e+003
2.111111e+000	2.749271e+003
2.116667e+000	2.801564e+003
2.122222e+000	2.852234e+003
2.127778e+000	2.906707e+003
2.133333e+000	2.965548e+003
2.138889e+000	3.032768e+003
2.144444e+000	3.106387e+003
2.150000e+000	3.184200e+003
2.155556e+000	3.269807e+003
2.161111e+000	3.364914e+003
2.165972e+000	3.448201e+003
2.170226e+000	3.524841e+003
2.174479e+000	3.608522e+003
2.178733e+000	3.691925e+003
2.182986e+000	3.775153e+003
2.187240e+000	3.859360e+003
2.191493e+000	3.941663e+003
2.195747e+000	4.016691e+003
2.200000e+000	4.091588e+003
2.204545e+000	4.170595e+003
2.209596e+000	4.260899e+003
2.214646e+000	4.352994e+003
2.219697e+000	4.447760e+003
2.224747e+000	4.548355e+003
2.229798e+000	4.652841e+003
2.234848e+000	4.756266e+003
2.239899e+000	4.859411e+003
2.244949e+000	4.962054e+003
2.247475e+000	5.003266e+003
2.250000e+000	5.051985e+003
2.252941e+000	5.113174e+003
2.256303e+000	5.186547e+003
2.259944e+000	5.266890e+003
2.263950e+000	5.355689e+003
2.268456e+000	5.461113e+003
2.272962e+000	5.566497e+003
2.277468e+000	5.677734e+003
2.281975e+000	5.788234e+003
2.286481e+000	5.895784e+003
2.290987e+000	6.002437e+003
2.295494e+000	6.101671e+003
2.300000e+000	6.192656e+003
2.305000e+000	6.282104e+003
2.310000e+000	6.355144e+003
2.315000e+000	6.414144e+003
2.320000e+000	6.463389e+003
2.325000e+000	6.504397e+003
2.330000e+000	6.539870e+003
2.335000e+000	6.570865e+003
2.340000e+000	6.597167e+003
2.345000e+000	6.618573e+003
2.350000e+000	6.637570e+003
2.355556e+000	6.652798e+003
2.361905e+000	6.667914e+003
2.368254e+000	6.681718e+003
2.374603e+000	6.696171e+003
2.380952e+000	6.714676e+003
2.387302e+000	6.733797e+003
2.393651e+000	6.750211e+003
2.400000e+000	6.764828e+003
2.407143e+000	6.781041e+003
2.414286e+000	6.797460e+003
2.421429e+000	6.816123e+003
2.428571e+000	6.833223e+003
2.435714e+000	6.851358e+003
2.442857e+000	6.868360e+003
2.450000e+000	6.881813e+003
2.457143e+000	6.893689e+003
2.464286e+000	6.907117e+003
2.471429e+000	6.920904e+003
2.478571e+000	6.934690e+003
2.485714e+000	6.950767e+003
2.492857e+000	6.967271e+003
2.500000e+000	6.984904e+003
2.507143e+000	7.000286e+003
2.514286e+000	7.012490e+003
2.521429e+000	7.025049e+003
2.528571e+000	7.040157e+003
2.535714e+000	7.055468e+003
2.542857e+000	7.071678e+003
2.550000e+000	7.087873e+003
2.557143e+000	7.102620e+003
2.564286e+000	7.116144e+003
2.571429e+000	7.127495e+003
2.578571e+000	7.138131e+003
2.585714e+000	7.148408e+003
2.592857e+000	7.157110e+003
2.600000e+000	7.165809e+003
2.607143e+000	7.174849e+003
2.614286e+000	7.182755e+003
2.621429e+000	7.190667e+003
2.628571e+000	7.198179e+003
2.635714e+000	7.206574e+003
2.642857e+000	7.216338e+003
2.650000e+000	7.227694e+003
2.657143e+000	7.242428e+003
2.664286e+000	7.257384e+003
2.671429e+000	7.274593e+003
2.678571e+000	7.293881e+003
2.685714e+000	7.315969e+003
2.692857e+000	7.339860e+003
2.700000e+000	7.367171e+003
2.707143e+000	7.396408e+003
2.714286e+000	7.425985e+003
2.721429e+000	7.454218e+003
2.728571e+000	7.481799e+003
2.735714e+000	7.508155e+003
2.742857e+000	7.532504e+003
2.750000e+000	7.555018e+003
2.757143e+000	7.575833e+003
2.764286e+000	7.595893e+003
2.771429e+000	7.614688e+003
2.778571e+000	7.632348e+003
2.785714e+000	7.647968e+003
2.792857e+000	7.664438e+003
2.800000e+000	7.680994e+003
2.807143e+000	7.697184e+003
2.814286e+000	7.713764e+003
2.821429e+000	7.730657e+003
2.828571e+000	7.748148e+003
2.835714e+000	7.766011e+003
2.842857e+000	7.783735e+003
2.850000e+000	7.801319e+003
2.857143e+000	7.819217e+003
2.864286e+000	7.838810e+003
2.871429e+000	7.860226e+003
2.878571e+000	7.883527e+003
2.885714e+000	7.908119e+003
2.892857e+000	7.934973e+003
2.900000e+000	7.963142e+003
2.907143e+000	7.992722e+003
2.914286e+000	8.023879e+003
2.921429e+000	8.055957e+003
2.928571e+000	8.087967e+003
2.935714e+000	8.117918e+003
2.942857e+000	8.146635e+003
2.950000e+000	8.174386e+003
2.957143e+000	8.201567e+003
2.964286e+000	8.227403e+003
2.971429e+000	8.250913e+003
2.978571e+000	8.272630e+003
2.985714e+000	8.292740e+003
2.992857e+000	8.312850e+003
3.000000e+000	8.333468e+003
3.008333e+000	8.354939e+003
3.016667e+000	8.379676e+003
3.025000e+000	8.404909e+003
3.033333e+000	8.428571e+003
3.041667e+000	8.450794e+003
3.050000e+000	8.472251e+003
3.058333e+000	8.492209e+003
3.066667e+000	8.510160e+003
3.075000e+000	8.527408e+003
3.083333e+000	8.542907e+003
3.091667e+000	8.555750e+003
3.100000e+000	8.565215e+003
3.108333e+000	8.571539e+003
3.116667e+000	8.575783e+003
3.125000e+000	8.579290e+003
3.133333e+000	8.581868e+003
3.141667e+000	8.583877e+003
3.150000e+000	8.584133e+003
3.158333e+000	8.583747e+003
3.166667e+000	8.582586e+003
3.175000e+000	8.580904e+003
3.183333e+000	8.578335e+003
3.191667e+000	8.575809e+003
3.200000e+000	8.572852e+003
3.208333e+000	8.569759e+003
3.216667e+000	8.567424e+003
3.225000e+000	8.566150e+003
3.233333e+000	8.565344e+003
3.241667e+000	8.565314e+003
3.250000e+000	8.565173e+003
3.258333e+000	8.565194e+003
3.266667e+000	8.566886e+003
3.275000e+000	8.569311e+003
3.283333e+000	8.571855e+003
3.291667e+000	8.574922e+003
3.300000e+000	8.578545e+003
3.308333e+000	8.581879e+003
3.316667e+000	8.585920e+003
3.325000e+000	8.590082e+003
3.333333e+000	8.593980e+003
3.341667e+000	8.598168e+003
3.350000e+000	8.602859e+003
3.358333e+000	8.608012e+003
3.366667e+000	8.613167e+003
3.375000e+000	8.618926e+003
3.383333e+000	8.625988e+003
3.391667e+000	8.634389e+003
3.400000e+000	8.644267e+003
3.408333e+000	8.655187e+003
3.416667e+000	8.667117e+003
3.425000e+000	8.680259e+003
3.433333e+000	8.694557e+003
3.441667e+000	8.709327e+003
3.450000e+000	8.724504e+003
3.458333e+000	8.739570e+003
3.466667e+000	8.754082e+003
3.475000e+000	8.767990e+003
3.483333e+000	8.781211e+003
3.491667e+000	8.793983e+003
3.500000e+000	8.806081e+003
3.508333e+000	8.817586e+003
3.516667e+000	8.828332e+003
3.525000e+000	8.838331e+003
3.533333e+000	8.847459e+003
3.541667e+000	8.855692e+003
3.550000e+000	8.863175e+003
3.558333e+000	8.870172e+003
3.566667e+000	8.876982e+003
3.575000e+000	8.883595e+003
3.583333e+000	8.890136e+003
3.591667e+000	8.896592e+003
3.600000e+000	8.903116e+003
3.608333e+000	8.909544e+003
3.616667e+000	8.916284e+003
3.625000e+000	8.922922e+003
3.633333e+000	8.929556e+003
3.641667e+000	8.936280e+003
3.650000e+000	8.943010e+003
3.658333e+000	8.949761e+003
3.666667e+000	8.956334e+003
3.675000e+000	8.962823e+003
3.683333e+000	8.968925e+003
3.691667e+000	8.974723e+003
3.700000e+000	8.980015e+003
3.708333e+000	8.984669e+003
3.716667e+000	8.988708e+003
3.725000e+000	8.992257e+003
3.733333e+000	8.995244e+003
3.741667e+000	8.997638e+003
3.750000e+000	8.999528e+003
3.758333e+000	9.001224e+003
3.766667e+000	9.002858e+003
3.775000e+000	9.004447e+003
3.783333e+000	9.006102e+003
3.791667e+000	9.007851e+003
3.800000e+000	9.009691e+003
3.808333e+000	9.011552e+003
3.816667e+000	9.013415e+003
3.825000e+000	9.015197e+003
3.833333e+000	9.016829e+003
3.841667e+000	9.018254e+003
3.850000e+000	9.019392e+003
3.858333e+000	9.020247e+003
3.866667e+000	9.020837e+003
3.875000e+000	9.021102e+003
3.883333e+000	9.020945e+003
3.891667e+000	9.020267e+003
3.900000e+000	9.019013e+003
3.908333e+000	9.017164e+003
3.916667e+000	9.014899e+003
3.925000e+000	9.012377e+003
3.933333e+000	9.009820e+003
3.941667e+000	9.007380e+003
3.950000e+000	9.005205e+003
3.958333e+000	9.003338e+003
3.966667e+000	9.001937e+003
3.975000e+000	9.000934e+003
3.983333e+000	9.000354e+003
3.991667e+000	9.000111e+003
4.000000e+000	8.999923e+003
4.008333e+000	8.999668e+003
4.016667e+000	8.999431e+003
4.025000e+000	8.999052e+003
4.033333e+000	8.998491e+003
4.041667e+000	8.997906e+003
4.050000e+000	8.997229e+003
4.058333e+000	8.996486e+003
4.066667e+000	8.995715e+003
4.075000e+000	8.994907e+003
4.083333e+000	8.994022e+003
4.091667e+000	8.992987e+003
4.100000e+000	8.991660e+003
4.108333e+000	8.989900e+003
4.116667e+000	8.988276e+003
4.125000e+000	8.986601e+003
4.133333e+000	8.984755e+003
4.141667e+000	8.982948e+003
4.150000e+000	8.981029e+003
4.158333e+000	8.978918e+003
4.166667e+000	8.976854e+003
4.175000e+000	8.974801e+003
4.183333e+000	8.972784e+003
4.191667e+000	8.970806e+003
4.200000e+000	8.968854e+003
4.208333e+000	8.966909e+003
4.216667e+000	8.964955e+003
4.225000e+000	8.963023e+003
4.233333e+000	8.961118e+003
4.241667e+000	8.959297e+003
4.250000e+000	8.957575e+003
4.258333e+000	8.955982e+003
4.266667e+000	8.954635e+003
4.275000e+000	8.953460e+003
4.283333e+000	8.952499e+003
4.291667e+000	8.951916e+003
4.300000e+000	8.951529e+003
4.308333e+000	8.951245e+003
4.316667e+000	8.951023e+003
4.325000e+000	8.950864e+003
4.333333e+000	8.950789e+003
4.341667e+000	8.950747e+003
