#   Source : patch outlet1
#   Faces  : 91
#   Area   : 3.750000e+000
#        Time	sum(rhoPhi)
3.333333e-002	0.000000e+000
5.000000e-002	2.122206e+000
6.500000e-002	5.894432e+000
8.000000e-002	7.516287e+000
9.500000e-002	2.002604e+001
1.100000e-001	1.530332e+001
1.250000e-001	3.210511e+001
1.400000e-001	2.262494e+001
1.550000e-001	4.513005e+001
1.700000e-001	3.422554e+001
1.850000e-001	5.545602e+001
2.000000e-001	4.148168e+001
2.166667e-001	5.913424e+001
2.350000e-001	4.394451e+001
2.556250e-001	5.630222e+001
2.736719e-001	4.077974e+001
2.894629e-001	4.787038e+001
3.032800e-001	3.852640e+001
3.170972e-001	4.382597e+001
3.309143e-001	3.757852e+001
3.447314e-001	4.296184e+001
3.585486e-001	3.571403e+001
3.723657e-001	4.258673e+001
3.861829e-001	3.326883e+001
4.000000e-001	4.271095e+001
4.142857e-001	3.149463e+001
4.275510e-001	4.279704e+001
4.408163e-001	2.874967e+001
4.552876e-001	4.508508e+001
4.713667e-001	2.907858e+001
4.874459e-001	4.853390e+001
5.015152e-001	2.644985e+001
5.155844e-001	4.726513e+001
5.296537e-001	2.443422e+001
5.437229e-001	4.509158e+001
5.577922e-001	1.981246e+001
5.718615e-001	4.306999e+001
5.859307e-001	1.569458e+001
6.000000e-001	4.145150e+001
6.142857e-001	1.342624e+001
6.285714e-001	4.019000e+001
6.428571e-001	1.279938e+001
6.559524e-001	3.821986e+001
6.690476e-001	1.229358e+001
6.821429e-001	3.571182e+001
6.952381e-001	1.309524e+001
7.083333e-001	3.543912e+001
7.214286e-001	1.592512e+001
7.345238e-001	3.687339e+001
7.476190e-001	2.120146e+001
7.607143e-001	4.080626e+001
7.738095e-001	2.647870e+001
7.825397e-001	4.372524e+001
7.912698e-001	2.971715e+001
8.000000e-001	4.570006e+001
8.100000e-001	3.230319e+001
8.211765e-001	4.732325e+001
8.330980e-001	3.456613e+001
8.459367e-001	5.106498e+001
8.599424e-001	3.791564e+001
8.755044e-001	5.493978e+001
8.910663e-001	4.170873e+001
9.066283e-001	5.703677e+001
9.221902e-001	4.603642e+001
9.377522e-001	5.979179e+001
9.533141e-001	5.120087e+001
9.688761e-001	6.314945e+001
9.844380e-001	5.793747e+001
1.000000e+000	6.789842e+001
1.016667e+000	6.902131e+001
1.035000e+000	9.114840e+001
1.048750e+000	1.469741e+002
1.062500e+000	2.812379e+002
1.076250e+000	4.529617e+002
1.086562e+000	5.763809e+002
1.096016e+000	6.201530e+002
1.105469e+000	5.814355e+002
1.115972e+000	5.251678e+002
1.127976e+000	5.210402e+002
1.139980e+000	5.700101e+002
1.151984e+000	6.293620e+002
1.163988e+000	7.223136e+002
1.175992e+000	7.541364e+002
1.187996e+000	8.105127e+002
1.200000e+000	8.382596e+002
1.214286e+000	9.326273e+002
1.229762e+000	9.971290e+002
1.246786e+000	1.048619e+003
1.263810e+000	1.055767e+003
1.280833e+000	1.130340e+003
1.297857e+000	1.218787e+003
1.314881e+000	1.383039e+003
1.331905e+000	1.532750e+003
1.345524e+000	1.698698e+003
1.359143e+000	1.828498e+003
1.372762e+000	1.952644e+003
1.386381e+000	1.965498e+003
1.400000e+000	1.940638e+003
1.415385e+000	1.954174e+003
1.432168e+000	2.020946e+003
1.448951e+000	2.109313e+003
1.464056e+000	2.241491e+003
1.477650e+000	2.326252e+003
1.491245e+000	2.455477e+003
1.504839e+000	2.567211e+003
1.518434e+000	2.697468e+003
1.532028e+000	2.814002e+003
1.545622e+000	2.962939e+003
1.559217e+000	3.113881e+003
1.569413e+000	3.226076e+003
1.579608e+000	3.361728e+003
1.589804e+000	3.526543e+003
1.600000e+000	3.666626e+003
1.611111e+000	3.863691e+003
1.623704e+000	4.051201e+003
1.637265e+000	4.233255e+003
1.652059e+000	4.377906e+003
1.666853e+000	4.508304e+003
1.681647e+000	4.604916e+003
1.696441e+000	4.691746e+003
1.711235e+000	4.746447e+003
1.726030e+000	4.877862e+003
1.740824e+000	5.003778e+003
1.755618e+000	5.208591e+003
1.770412e+000	5.347032e+003
1.785206e+000	5.522245e+003
1.800000e+000	5.582773e+003
1.816667e+000	5.682499e+003
1.835000e+000	5.708100e+003
1.855625e+000	5.894354e+003
1.876250e+000	6.102855e+003
1.896875e+000	6.358302e+003
1.917500e+000	6.583699e+003
1.934000e+000	6.727163e+003
1.950500e+000	6.873165e+003
1.967000e+000	7.044859e+003
1.983500e+000	7.219718e+003
2.000000e+000	7.416562e+003
2.018182e+000	7.576475e+003
2.038384e+000	7.670486e+003
2.058586e+000	7.712273e+003
2.078788e+000	7.735756e+003
2.096104e+000	7.760633e+003
2.113420e+000	7.856029e+003
2.130736e+000	7.975272e+003
2.148052e+000	8.192872e+003
2.165368e+000	8.379726e+003
2.182684e+000	8.649035e+003
2.200000e+000	8.836614e+003
2.218182e+000	9.095859e+003
2.238384e+000	9.312126e+003
2.258586e+000	9.599238e+003
2.278788e+000	9.810877e+003
2.298990e+000	1.008727e+004
2.319192e+000	1.027705e+004
2.339394e+000	1.050302e+004
2.359596e+000	1.060929e+004
2.379798e+000	1.075648e+004
2.400000e+000	1.080906e+004
2.422222e+000	1.094701e+004
2.444444e+000	1.101615e+004
2.466667e+000	1.116988e+004
2.488889e+000	1.127734e+004
2.511111e+000	1.147702e+004
2.533333e+000	1.160171e+004
2.555556e+000	1.180069e+004
2.577778e+000	1.195329e+004
2.600000e+000	1.215373e+004
2.622222e+000	1.225433e+004
2.644444e+000	1.235898e+004
2.666667e+000	1.239235e+004
2.688889e+000	1.246887e+004
2.711111e+000	1.249930e+004
2.733333e+000	1.256572e+004
2.755556e+000	1.259332e+004
2.777778e+000	1.267203e+004
2.800000e+000	1.272426e+004
2.822222e+000	1.284628e+004
2.844444e+000	1.293222e+004
2.866667e+000	1.308929e+004
2.888889e+000	1.320115e+004
2.911111e+000	1.333159e+004
2.933333e+000	1.339233e+004
2.955556e+000	1.349236e+004
2.977778e+000	1.353713e+004
3.000000e+000	1.364143e+004
3.022222e+000	1.369213e+004
3.044444e+000	1.380589e+004
3.066667e+000	1.386735e+004
3.088889e+000	1.397685e+004
3.111111e+000	1.403042e+004
3.133333e+000	1.411202e+004
3.155556e+000	1.413473e+004
3.177778e+000	1.418338e+004
3.200000e+000	1.418276e+004
3.222222e+000	1.422314e+004
3.244444e+000	1.421396e+004
3.266667e+000	1.424545e+004
3.288889e+000	1.423175e+004
3.311111e+000	1.426355e+004
3.333333e+000	1.424872e+004
3.355556e+000	1.427771e+004
3.377778e+000	1.426681e+004
3.400000e+000	1.430141e+004
3.422222e+000	1.429112e+004
3.444444e+000	1.432009e+004
3.466667e+000	1.430465e+004
3.488889e+000	1.432764e+004
3.511111e+000	1.430421e+004
3.533333e+000	1.432381e+004
3.555556e+000	1.429388e+004
3.577778e+000	1.431081e+004
3.600000e+000	1.428450e+004
3.622222e+000	1.430482e+004
3.644444e+000	1.427847e+004
3.666667e+000	1.430127e+004
3.688889e+000	1.427158e+004
3.711111e+000	1.429067e+004
3.733333e+000	1.425690e+004
3.755556e+000	1.427551e+004
3.777778e+000	1.424129e+004
3.800000e+000	1.426579e+004
3.822222e+000	1.422843e+004
3.844444e+000	1.425098e+004
3.866667e+000	1.420515e+004
3.888889e+000	1.422587e+004
3.911111e+000	1.418320e+004
3.933333e+000	1.421038e+004
3.955556e+000	1.417870e+004
3.977778e+000	1.422046e+004
4.000000e+000	1.420496e+004
4.022222e+000	1.426294e+004
4.044444e+000	1.426244e+004
4.066667e+000	1.433144e+004
4.088889e+000	1.433156e+004
4.111111e+000	1.438709e+004
4.133333e+000	1.436346e+004
4.155556e+000	1.439247e+004
4.177778e+000	1.434515e+004
4.200000e+000	1.435552e+004
4.222222e+000	1.429792e+004
4.244444e+000	1.430742e+004
4.266667e+000	1.425167e+004
4.288889e+000	1.426468e+004
4.311111e+000	1.421008e+004
4.333333e+000	1.421806e+004
4.355556e+000	1.415608e+004
4.377778e+000	1.415772e+004
4.400000e+000	1.409102e+004
4.422222e+000	1.409109e+004
4.444444e+000	1.402702e+004
4.466667e+000	1.403279e+004
4.488889e+000	1.397605e+004
4.511111e+000	1.398993e+004
4.533333e+000	1.393957e+004
4.555556e+000	1.395779e+004
4.577778e+000	1.391069e+004
4.600000e+000	1.393223e+004
4.622222e+000	1.388858e+004
4.644444e+000	1.391412e+004
4.666667e+000	1.387506e+004
4.688889e+000	1.390514e+004
4.711111e+000	1.387004e+004
4.733333e+000	1.390293e+004
4.755556e+000	1.386938e+004
4.777778e+000	1.390256e+004
4.800000e+000	1.386783e+004
4.822222e+000	1.389986e+004
4.844444e+000	1.386510e+004
4.866667e+000	1.389845e+004
4.888889e+000	1.386482e+004
4.911111e+000	1.389869e+004
4.933333e+000	1.386504e+004
4.955556e+000	1.389830e+004
4.977778e+000	1.386240e+004
5.000000e+000	1.389360e+004
5.022222e+000	1.385693e+004
5.044444e+000	1.388848e+004
5.066667e+000	1.385201e+004
5.088889e+000	1.388146e+004
5.111111e+000	1.384047e+004
5.133333e+000	1.386448e+004
5.155556e+000	1.381714e+004
5.177778e+000	1.383601e+004
5.200000e+000	1.378772e+004
5.222222e+000	1.380976e+004
5.244444e+000	1.376714e+004
5.266667e+000	1.379525e+004
5.288889e+000	1.375773e+004
5.311111e+000	1.378903e+004
5.333333e+000	1.375229e+004
5.355556e+000	1.378200e+004
5.377778e+000	1.374187e+004
5.400000e+000	1.376774e+004
5.422222e+000	1.372455e+004
5.444444e+000	1.374924e+004
5.466667e+000	1.370671e+004
5.488889e+000	1.373472e+004
5.511111e+000	1.369778e+004
5.533333e+000	1.373251e+004
5.555556e+000	1.370036e+004
5.577778e+000	1.373588e+004
5.600000e+000	1.370052e+004
5.622222e+000	1.373018e+004
5.644444e+000	1.368882e+004
5.666667e+000	1.371481e+004
5.688889e+000	1.367352e+004
5.711111e+000	1.370288e+004
5.733333e+000	1.366678e+004
5.755556e+000	1.370068e+004
5.777778e+000	1.366748e+004
5.800000e+000	1.370214e+004
5.822222e+000	1.366617e+004
5.844444e+000	1.369561e+004
5.866667e+000	1.365405e+004
5.888889e+000	1.367983e+004
5.911111e+000	1.363974e+004
5.933333e+000	1.367214e+004
5.955556e+000	1.364014e+004
5.977778e+000	1.368160e+004
6.000000e+000	1.365721e+004
6.022222e+000	1.370150e+004
6.044444e+000	1.367702e+004
6.066667e+000	1.372210e+004
6.088889e+000	1.369808e+004
6.111111e+000	1.374079e+004
6.133333e+000	1.371218e+004
6.155556e+000	1.374983e+004
6.177778e+000	1.371796e+004
6.200000e+000	1.375490e+004
6.222222e+000	1.372359e+004
6.244444e+000	1.375969e+004
6.266667e+000	1.372465e+004
6.288889e+000	1.375478e+004
6.311111e+000	1.371292e+004
6.333333e+000	1.373827e+004
6.355556e+000	1.369570e+004
6.377778e+000	1.372363e+004
6.400000e+000	1.368569e+004
6.422222e+000	1.371779e+004
6.444444e+000	1.368164e+004
6.466667e+000	1.371369e+004
6.488889e+000	1.367697e+004
6.511111e+000	1.370915e+004
6.533333e+000	1.367357e+004
6.555556e+000	1.370756e+004
6.577778e+000	1.367318e+004
6.600000e+000	1.370699e+004
6.622222e+000	1.367114e+004
6.644444e+000	1.370230e+004
6.666667e+000	1.366300e+004
6.688889e+000	1.369064e+004
6.711111e+000	1.364902e+004
6.733333e+000	1.367629e+004
6.755556e+000	1.363704e+004
6.777778e+000	1.366904e+004
6.800000e+000	1.363587e+004
6.822222e+000	1.367367e+004
6.844444e+000	1.364407e+004
6.866667e+000	1.368222e+004
6.888889e+000	1.365033e+004
6.911111e+000	1.368516e+004
6.933333e+000	1.364933e+004
6.955556e+000	1.368012e+004
6.977778e+000	1.364016e+004
7.000000e+000	1.366736e+004
7.022222e+000	1.362343e+004
7.044444e+000	1.364784e+004
7.066667e+000	1.360575e+004
7.088889e+000	1.363645e+004
7.111111e+000	1.360168e+004
7.133333e+000	1.363953e+004
7.155556e+000	1.361068e+004
7.177778e+000	1.365400e+004
7.200000e+000	1.363027e+004
7.222222e+000	1.367558e+004
7.244444e+000	1.365075e+004
7.266667e+000	1.369393e+004
7.288889e+000	1.366560e+004
7.311111e+000	1.370369e+004
7.333333e+000	1.367032e+004
7.355556e+000	1.370384e+004
7.377778e+000	1.366650e+004
7.400000e+000	1.369626e+004
7.422222e+000	1.365499e+004
7.444444e+000	1.368123e+004
7.466667e+000	1.363804e+004
7.488889e+000	1.366357e+004
7.511111e+000	1.362254e+004
7.533333e+000	1.365339e+004
7.555556e+000	1.361897e+004
7.577778e+000	1.365614e+004
7.600000e+000	1.362678e+004
7.622222e+000	1.366676e+004
7.644444e+000	1.363666e+004
7.666667e+000	1.367380e+004
7.688889e+000	1.364112e+004
7.711111e+000	1.367622e+004
7.733333e+000	1.364182e+004
7.755556e+000	1.367596e+004
7.777778e+000	1.364165e+004
7.800000e+000	1.367661e+004
7.822222e+000	1.364325e+004
7.844444e+000	1.367895e+004
7.866667e+000	1.364560e+004
7.888889e+000	1.368006e+004
7.911111e+000	1.364520e+004
7.933333e+000	1.367914e+004
7.955556e+000	1.364526e+004
7.977778e+000	1.368099e+004
8.000000e+000	1.364877e+004
8.022222e+000	1.368497e+004
8.044444e+000	1.365173e+004
8.066667e+000	1.368567e+004
8.088889e+000	1.364970e+004
8.111111e+000	1.368041e+004
8.133333e+000	1.364160e+004
8.155556e+000	1.367081e+004
8.177778e+000	1.363177e+004
8.200000e+000	1.366189e+004
8.222222e+000	1.362516e+004
8.244444e+000	1.365923e+004
8.266667e+000	1.362745e+004
8.288889e+000	1.366619e+004
8.311111e+000	1.363727e+004
8.333333e+000	1.367672e+004
8.355556e+000	1.364652e+004
8.377778e+000	1.368337e+004
8.400000e+000	1.365015e+004
8.422222e+000	1.368416e+004
8.444444e+000	1.364878e+004
8.466667e+000	1.368174e+004
8.488889e+000	1.364657e+004
8.511111e+000	1.368005e+004
8.533333e+000	1.364546e+004
8.555556e+000	1.367945e+004
8.577778e+000	1.364537e+004
8.600000e+000	1.367997e+004
8.622222e+000	1.364627e+004
8.644444e+000	1.368085e+004
8.666667e+000	1.364637e+004
8.688889e+000	1.367927e+004
8.711111e+000	1.364304e+004
8.733333e+000	1.367420e+004
8.755556e+000	1.363662e+004
8.777778e+000	1.366696e+004
8.800000e+000	1.362890e+004
8.822222e+000	1.366002e+004
8.844444e+000	1.362446e+004
8.866667e+000	1.365983e+004
8.888889e+000	1.362888e+004
8.911111e+000	1.366741e+004
8.933333e+000	1.363732e+004
8.955556e+000	1.367477e+004
8.977778e+000	1.364196e+004
9.000000e+000	1.367581e+004
9.022222e+000	1.363963e+004
9.044444e+000	1.367106e+004
9.066667e+000	1.363384e+004
9.088889e+000	1.366577e+004
9.111111e+000	1.363048e+004
9.133333e+000	1.366549e+004
9.155556e+000	1.363340e+004
9.177778e+000	1.367061e+004
9.200000e+000	1.363946e+004
9.222222e+000	1.367644e+004
9.244444e+000	1.364391e+004
9.266667e+000	1.367849e+004
9.288889e+000	1.364335e+004
9.311111e+000	1.367602e+004
9.333333e+000	1.364013e+004
9.355556e+000	1.367271e+004
9.377778e+000	1.363724e+004
9.400000e+000	1.367019e+004
9.422222e+000	1.363529e+004
9.444444e+000	1.366986e+004
9.466667e+000	1.363731e+004
9.488889e+000	1.367442e+004
9.511111e+000	1.364429e+004
9.533333e+000	1.368286e+004
9.555556e+000	1.365294e+004
9.577778e+000	1.369007e+004
9.600000e+000	1.365638e+004
9.622222e+000	1.368888e+004
9.644444e+000	1.365093e+004
9.666667e+000	1.368027e+004
9.688889e+000	1.364062e+004
9.711111e+000	1.366985e+004
9.733333e+000	1.363165e+004
9.755556e+000	1.366352e+004
9.777778e+000	1.362856e+004
9.800000e+000	1.366353e+004
9.822222e+000	1.363103e+004
9.844444e+000	1.366782e+004
9.866667e+000	1.363726e+004
9.888889e+000	1.367548e+004
9.911111e+000	1.364450e+004
9.933333e+000	1.368027e+004
9.955556e+000	1.364526e+004
9.977778e+000	1.367592e+004
1.000000e+001	1.363651e+004
